 written on 14Nov2020 at 14:47:13 
           8
        5873
  -13    3    5    1    1    0.000000    0.000000    0.000064    0.000000   -0.000016   -0.000000
  -13    3    5    2    1   -0.000408    0.000000   -0.000197    0.000000   -0.000048    0.000000
  -13    3    5    3    1   -0.000061    0.000000    0.000004    0.000000    0.000003    0.000000
  -13    3    5    4    1   -0.000035   -0.000000   -0.000001   -0.000000    0.000213   -0.000000
  -13    3    5    5    1   -0.000052    0.000000   -0.000095    0.000000   -0.000415    0.000000
  -13    3    5    6    1   -0.000477   -0.000000   -0.000229   -0.000000   -0.000012   -0.000000
  -13    3    5    7    1   -0.000036   -0.000000   -0.000050   -0.000000   -0.000072    0.000000
  -13    3    5    8    1   -0.000029    0.000000    0.000005   -0.000000    0.000141    0.000000
  -13    3    5    1    2   -0.000446   -0.000000   -0.000180   -0.000000   -0.000088   -0.000000
  -13    3    5    2    2    0.000000   -0.000000   -0.000010   -0.000000    0.000020    0.000000
  -13    3    5    3    2   -0.000042    0.000000   -0.000032    0.000000   -0.000023    0.000000
  -13    3    5    4    2    0.000329    0.000000    0.000189    0.000000    0.000025    0.000000
  -13    3    5    5    2   -0.000464   -0.000000   -0.000195   -0.000000   -0.000078    0.000000
  -13    3    5    6    2   -0.000022    0.000000   -0.000092    0.000000   -0.000567   -0.000000
  -13    3    5    7    2   -0.000136    0.000000   -0.000059    0.000000   -0.000026    0.000000
  -13    3    5    8    2    0.000180    0.000000    0.000151    0.000000   -0.000024    0.000000
  -13    3    5    1    3   -0.000002    0.000000    0.000007    0.000000    0.000005    0.000000
  -13    3    5    2    3   -0.000112   -0.000000    0.000013   -0.000000    0.000009   -0.000000
  -13    3    5    3    3   -0.000000    0.000000   -0.000013   -0.000000   -0.000004   -0.000000
  -13    3    5    4    3   -0.000004    0.000000    0.000006    0.000000    0.000004    0.000000
  -13    3    5    5    3    0.000063   -0.000000    0.000024   -0.000000    0.000076   -0.000000
  -13    3    5    6    3   -0.000047   -0.000000    0.000066   -0.000000    0.000060   -0.000000
  -13    3    5    7    3    0.000047   -0.000000   -0.000011    0.000000   -0.000069   -0.000000
  -13    3    5    8    3    0.000003    0.000000    0.000009    0.000000   -0.000019   -0.000000
  -13    3    5    1    4   -0.000049    0.000000    0.000035    0.000000   -0.000117    0.000000
  -13    3    5    2    4   -0.000318    0.000000   -0.000276    0.000000   -0.000072    0.000000
  -13    3    5    3    4   -0.000014   -0.000000   -0.000002   -0.000000   -0.000001    0.000000
  -13    3    5    4    4    0.000000   -0.000000   -0.000045   -0.000000    0.000006    0.000000
  -13    3    5    5    4   -0.000037   -0.000000    0.000021   -0.000000   -0.000112   -0.000000
  -13    3    5    6    4   -0.000205   -0.000000   -0.000282   -0.000000   -0.000025   -0.000000
  -13    3    5    7    4   -0.000031   -0.000000   -0.000027   -0.000000   -0.000005   -0.000000
  -13    3    5    8    4   -0.000025   -0.000000   -0.000042   -0.000000   -0.000059    0.000000
  -13    3    5    1    5   -0.000081   -0.000000   -0.000081   -0.000000   -0.000235   -0.000000
  -13    3    5    2    5   -0.000229   -0.000000   -0.000115   -0.000000    0.000007    0.000000
  -13    3    5    3    5   -0.000027   -0.000000    0.000003   -0.000000    0.000084   -0.000000
  -13    3    5    4    5    0.000027    0.000000    0.000015   -0.000000    0.000222    0.000000
  -13    3    5    5    5   -0.000000   -0.000000   -0.000064   -0.000000    0.000016    0.000000
  -13    3    5    6    5   -0.000288   -0.000000   -0.000110   -0.000000    0.000043   -0.000000
  -13    3    5    7    5   -0.000018    0.000000    0.000003   -0.000000    0.000002    0.000000
  -13    3    5    8    5   -0.000020    0.000000    0.000019    0.000000    0.000164    0.000000
  -13    3    5    1    6   -0.000216   -0.000000   -0.000056    0.000000    0.000026    0.000000
  -13    3    5    2    6   -0.000076    0.000000   -0.000078   -0.000000   -0.000300   -0.000000
  -13    3    5    3    6    0.000062    0.000000    0.000001    0.000000    0.000010   -0.000000
  -13    3    5    4    6    0.000224    0.000000    0.000101    0.000000   -0.000001    0.000000
  -13    3    5    5    6   -0.000258    0.000000   -0.000080    0.000000    0.000007   -0.000000
  -13    3    5    6    6   -0.000000    0.000000    0.000010    0.000000   -0.000020   -0.000000
  -13    3    5    7    6   -0.000035   -0.000000   -0.000026   -0.000000   -0.000018    0.000000
  -13    3    5    8    6    0.000176   -0.000000    0.000083   -0.000000   -0.000066   -0.000000
  -13    3    5    1    7    0.000004    0.000000   -0.000040   -0.000000   -0.000048   -0.000000
  -13    3    5    2    7   -0.000157   -0.000000   -0.000023   -0.000000   -0.000009   -0.000000
  -13    3    5    3    7   -0.000010   -0.000000   -0.000029   -0.000000   -0.000115   -0.000000
  -13    3    5    4    7    0.000007    0.000000    0.000010    0.000000    0.000040    0.000000
  -13    3    5    5    7    0.000028   -0.000000    0.000013    0.000000    0.000009   -0.000000
  -13    3    5    6    7   -0.000112    0.000000    0.000005   -0.000000    0.000003   -0.000000
  -13    3    5    7    7    0.000000   -0.000000    0.000013    0.000000    0.000004    0.000000
  -13    3    5    8    7   -0.000013   -0.000000   -0.000002   -0.000000   -0.000001   -0.000000
  -13    3    5    1    8   -0.000071   -0.000000   -0.000048   -0.000000   -0.000115   -0.000000
  -13    3    5    2    8   -0.000292   -0.000000   -0.000218   -0.000000   -0.000079   -0.000000
  -13    3    5    3    8   -0.000009   -0.000000    0.000022   -0.000000    0.000031   -0.000000
  -13    3    5    4    8    0.000022    0.000000   -0.000001   -0.000000   -0.000005    0.000000
  -13    3    5    5    8   -0.000036   -0.000000   -0.000007   -0.000000   -0.000169   -0.000000
  -13    3    5    6    8   -0.000241   -0.000000   -0.000253   -0.000000   -0.000017    0.000000
  -13    3    5    7    8    0.000012    0.000000   -0.000003    0.000000   -0.000002   -0.000000
  -13    3    5    8    8   -0.000000    0.000000    0.000045    0.000000   -0.000006   -0.000000
  -13    4    4    1    1    0.000000   -0.000000    0.000011   -0.000000    0.000006   -0.000000
  -13    4    4    2    1   -0.000445   -0.000000   -0.000322   -0.000000    0.000048   -0.000000
  -13    4    4    3    1   -0.000016    0.000000    0.000010    0.000000    0.000007   -0.000000
  -13    4    4    4    1   -0.000018   -0.000000   -0.000028   -0.000000    0.000089   -0.000000
  -13    4    4    5    1    0.000009   -0.000000   -0.000095    0.000000   -0.000327    0.000000
  -13    4    4    6    1   -0.000453    0.000000   -0.000310   -0.000000    0.000077    0.000000
  -13    4    4    7    1   -0.000023   -0.000000    0.000002    0.000000   -0.000057   -0.000000
  -13    4    4    8    1   -0.000025    0.000000   -0.000009    0.000000    0.000039   -0.000000
  -13    4    4    1    2   -0.000459   -0.000000   -0.000218   -0.000000    0.000030   -0.000000
  -13    4    4    2    2   -0.000000    0.000000    0.000009    0.000000    0.000005    0.000000
  -13    4    4    3    2   -0.000063   -0.000000   -0.000043   -0.000000   -0.000030   -0.000000
  -13    4    4    4    2    0.000217   -0.000000    0.000122   -0.000000   -0.000057    0.000000
  -13    4    4    5    2   -0.000476   -0.000000   -0.000226   -0.000000    0.000010   -0.000000
  -13    4    4    6    2   -0.000018   -0.000000   -0.000049    0.000000   -0.000465    0.000000
  -13    4    4    7    2   -0.000150   -0.000000   -0.000103   -0.000000   -0.000014   -0.000000
  -13    4    4    8    2    0.000082   -0.000000    0.000064   -0.000000   -0.000102   -0.000000
  -13    4    4    1    3    0.000069    0.000000    0.000011    0.000000    0.000008    0.000000
  -13    4    4    2    3   -0.000100   -0.000000    0.000011   -0.000000    0.000008   -0.000000
  -13    4    4    3    3   -0.000000    0.000000   -0.000011    0.000000   -0.000008    0.000000
  -13    4    4    4    3    0.000009    0.000000   -0.000006    0.000000   -0.000004    0.000000
  -13    4    4    5    3    0.000094   -0.000000    0.000009   -0.000000    0.000031   -0.000000
  -13    4    4    6    3   -0.000065    0.000000    0.000065    0.000000    0.000008   -0.000000
  -13    4    4    7    3   -0.000000   -0.000000   -0.000018   -0.000000   -0.000053   -0.000000
  -13    4    4    8    3   -0.000010   -0.000000   -0.000012   -0.000000   -0.000016   -0.000000
  -13    4    4    1    4   -0.000042   -0.000000    0.000017   -0.000000   -0.000022   -0.000000
  -13    4    4    2    4   -0.000242   -0.000000   -0.000240    0.000000   -0.000012   -0.000000
  -13    4    4    3    4   -0.000034   -0.000000   -0.000004   -0.000000   -0.000003   -0.000000
  -13    4    4    4    4    0.000000    0.000000   -0.000012    0.000000    0.000002    0.000000
  -13    4    4    5    4   -0.000069   -0.000000    0.000017   -0.000000   -0.000012   -0.000000
  -13    4    4    6    4   -0.000145   -0.000000   -0.000223   -0.000000    0.000034    0.000000
  -13    4    4    7    4   -0.000027   -0.000000    0.000004    0.000000   -0.000020   -0.000000
  -13    4    4    8    4   -0.000014   -0.000000   -0.000031    0.000000   -0.000072   -0.000000
  -13    4    4    1    5   -0.000048    0.000000   -0.000070   -0.000000   -0.000194   -0.000000
  -13    4    4    2    5   -0.000262   -0.000000   -0.000202   -0.000000    0.000040   -0.000000
  -13    4    4    3    5   -0.000072   -0.000000   -0.000006   -0.000000    0.000047   -0.000000
  -13    4    4    4    5    0.000010   -0.000000   -0.000031   -0.000000    0.000119    0.000000
  -13    4    4    5    5   -0.000000    0.000000   -0.000011    0.000000   -0.000006    0.000000
  -13    4    4    6    5   -0.000323   -0.000000   -0.000267   -0.000000    0.000103   -0.000000
  -13    4    4    7    5   -0.000073   -0.000000   -0.000008   -0.000000   -0.000006   -0.000000
  -13    4    4    8    5   -0.000039   -0.000000   -0.000038   -0.000000    0.000032   -0.000000
  -13    4    4    1    6   -0.000248    0.000000   -0.000095    0.000000    0.000042   -0.000000
  -13    4    4    2    6   -0.000065   -0.000000   -0.000052    0.000000   -0.000319    0.000000
  -13    4    4    3    6    0.000044    0.000000   -0.000013    0.000000   -0.000003   -0.000000
  -13    4    4    4    6    0.000206    0.000000    0.000102    0.000000   -0.000056   -0.000000
  -13    4    4    5    6   -0.000273   -0.000000   -0.000128   -0.000000    0.000092   -0.000000
  -13    4    4    6    6    0.000000   -0.000000   -0.000009   -0.000000   -0.000005   -0.000000
  -13    4    4    7    6   -0.000033   -0.000000   -0.000023    0.000000   -0.000016    0.000000
  -13    4    4    8    6    0.000128    0.000000    0.000059   -0.000000   -0.000063    0.000000
  -13    4    4    1    7    0.000032   -0.000000    0.000003    0.000000   -0.000021    0.000000
  -13    4    4    2    7   -0.000198   -0.000000   -0.000043   -0.000000   -0.000008   -0.000000
  -13    4    4    3    7   -0.000044   -0.000000   -0.000045    0.000000   -0.000105   -0.000000
  -13    4    4    4    7   -0.000021   -0.000000   -0.000008   -0.000000    0.000024   -0.000000
  -13    4    4    5    7   -0.000017   -0.000000    0.000007    0.000000    0.000005   -0.000000
  -13    4    4    6    7   -0.000153   -0.000000    0.000005    0.000000    0.000003   -0.000000
  -13    4    4    7    7    0.000000   -0.000000    0.000011   -0.000000    0.000008   -0.000000
  -13    4    4    8    7   -0.000032   -0.000000   -0.000005   -0.000000   -0.000003   -0.000000
  -13    4    4    1    8   -0.000036    0.000000   -0.000024   -0.000000   -0.000049    0.000000
  -13    4    4    2    8   -0.000219   -0.000000   -0.000201   -0.000000    0.000020   -0.000000
  -13    4    4    3    8   -0.000013   -0.000000    0.000007    0.000000   -0.000003    0.000000
  -13    4    4    4    8    0.000002    0.000000   -0.000021    0.000000   -0.000062    0.000000
  -13    4    4    5    8   -0.000022   -0.000000    0.000013   -0.000000   -0.000071   -0.000000
  -13    4    4    6    8   -0.000168    0.000000   -0.000179    0.000000    0.000017   -0.000000
  -13    4    4    7    8   -0.000009   -0.000000    0.000004   -0.000000    0.000003   -0.000000
  -13    4    4    8    8   -0.000000   -0.000000    0.000012   -0.000000   -0.000002   -0.000000
  -13    4    5    1    1   -0.000013    0.000000    0.000007   -0.000000    0.000001    0.000000
  -13    4    5    2    1   -0.000492    0.000000   -0.000279    0.000000    0.000018    0.000000
  -13    4    5    3    1   -0.000073    0.000000   -0.000008    0.000000   -0.000150    0.000000
  -13    4    5    4    1   -0.000016   -0.000000   -0.000034   -0.000000    0.000084   -0.000000
  -13    4    5    5    1   -0.000032   -0.000000   -0.000060   -0.000000   -0.000421   -0.000000
  -13    4    5    6    1   -0.000400   -0.000000   -0.000235    0.000000    0.000035   -0.000000
  -13    4    5    7    1   -0.000037   -0.000000   -0.000014    0.000000   -0.000177   -0.000000
  -13    4    5    8    1   -0.000046   -0.000000   -0.000038    0.000000   -0.000006   -0.000000
  -13    4    5    1    2   -0.000512    0.000000   -0.000240    0.000000   -0.000006    0.000000
  -13    4    5    2    2    0.000009   -0.000000   -0.000008    0.000000    0.000011   -0.000000
  -13    4    5    3    2   -0.000199   -0.000000   -0.000124   -0.000000   -0.000093   -0.000000
  -13    4    5    4    2    0.000096    0.000000    0.000112    0.000000   -0.000053   -0.000000
  -13    4    5    5    2   -0.000397   -0.000000   -0.000204    0.000000   -0.000037    0.000000
  -13    4    5    6    2    0.000006   -0.000000   -0.000039   -0.000000   -0.000575   -0.000000
  -13    4    5    7    2   -0.000216    0.000000   -0.000143   -0.000000   -0.000047   -0.000000
  -13    4    5    8    2    0.000013   -0.000000    0.000039   -0.000000   -0.000096   -0.000000
  -13    4    5    1    3    0.000067    0.000000    0.000023    0.000000    0.000051    0.000000
  -13    4    5    2    3   -0.000075    0.000000    0.000094   -0.000000    0.000051    0.000000
  -13    4    5    3    3    0.000009   -0.000000    0.000010    0.000000    0.000003    0.000000
  -13    4    5    4    3   -0.000006   -0.000000    0.000027   -0.000000   -0.000021   -0.000000
  -13    4    5    5    3    0.000075    0.000000    0.000058   -0.000000    0.000135   -0.000000
  -13    4    5    6    3   -0.000029   -0.000000    0.000121   -0.000000    0.000048   -0.000000
  -13    4    5    7    3    0.000015   -0.000000   -0.000004    0.000000   -0.000052    0.000000
  -13    4    5    8    3    0.000011   -0.000000    0.000025   -0.000000    0.000015   -0.000000
  -13    4    5    1    4   -0.000055   -0.000000    0.000009   -0.000000   -0.000027   -0.000000
  -13    4    5    2    4   -0.000097    0.000000   -0.000232    0.000000    0.000014    0.000000
  -13    4    5    3    4   -0.000001    0.000000    0.000017    0.000000   -0.000005    0.000000
  -13    4    5    4    4   -0.000012   -0.000000   -0.000006    0.000000   -0.000012   -0.000000
  -13    4    5    5    4   -0.000003    0.000000    0.000028    0.000000    0.000013    0.000000
  -13    4    5    6    4   -0.000026    0.000000   -0.000153    0.000000    0.000010    0.000000
  -13    4    5    7    4   -0.000001    0.000000    0.000041    0.000000    0.000005    0.000000
  -13    4    5    8    4    0.000026    0.000000   -0.000030    0.000000   -0.000075    0.000000
  -13    4    5    1    5   -0.000057   -0.000000   -0.000127   -0.000000   -0.000370    0.000000
  -13    4    5    2    5   -0.000325    0.000000   -0.000209   -0.000000    0.000063    0.000000
  -13    4    5    3    5   -0.000053    0.000000    0.000008    0.000000    0.000005   -0.000000
  -13    4    5    4    5   -0.000009    0.000000   -0.000006    0.000000    0.000126   -0.000000
  -13    4    5    5    5    0.000013   -0.000000   -0.000007    0.000000   -0.000001   -0.000000
  -13    4    5    6    5   -0.000340    0.000000   -0.000190    0.000000    0.000057   -0.000000
  -13    4    5    7    5   -0.000061    0.000000    0.000025    0.000000   -0.000095    0.000000
  -13    4    5    8    5    0.000013    0.000000   -0.000009    0.000000    0.000063   -0.000000
  -13    4    5    1    6   -0.000316   -0.000000   -0.000160   -0.000000    0.000016   -0.000000
  -13    4    5    2    6   -0.000060   -0.000000   -0.000065   -0.000000   -0.000626   -0.000000
  -13    4    5    3    6   -0.000013   -0.000000   -0.000030   -0.000000   -0.000021   -0.000000
  -13    4    5    4    6    0.000129   -0.000000    0.000093   -0.000000   -0.000081    0.000000
  -13    4    5    5    6   -0.000280    0.000000   -0.000143    0.000000    0.000006    0.000000
  -13    4    5    6    6   -0.000009    0.000000    0.000008   -0.000000   -0.000011    0.000000
  -13    4    5    7    6   -0.000104   -0.000000   -0.000047    0.000000   -0.000006   -0.000000
  -13    4    5    8    6    0.000066    0.000000    0.000068    0.000000   -0.000097   -0.000000
  -13    4    5    1    7   -0.000010   -0.000000    0.000013   -0.000000    0.000009   -0.000000
  -13    4    5    2    7   -0.000135    0.000000    0.000010    0.000000    0.000007    0.000000
  -13    4    5    3    7   -0.000012    0.000000   -0.000016    0.000000   -0.000163    0.000000
  -13    4    5    4    7   -0.000001    0.000000    0.000000    0.000000    0.000000    0.000000
  -13    4    5    5    7    0.000032    0.000000    0.000054    0.000000    0.000121    0.000000
  -13    4    5    6    7   -0.000097    0.000000    0.000064   -0.000000    0.000012   -0.000000
  -13    4    5    7    7   -0.000009    0.000000   -0.000010   -0.000000   -0.000003   -0.000000
  -13    4    5    8    7    0.000014    0.000000    0.000026    0.000000    0.000010    0.000000
  -13    4    5    1    8   -0.000022    0.000000    0.000040    0.000000   -0.000102   -0.000000
  -13    4    5    2    8   -0.000164    0.000000   -0.000240    0.000000    0.000008    0.000000
  -13    4    5    3    8    0.000000    0.000000   -0.000000   -0.000000   -0.000000   -0.000000
  -13    4    5    4    8   -0.000017    0.000000   -0.000026   -0.000000   -0.000143    0.000000
  -13    4    5    5    8    0.000003   -0.000000    0.000020    0.000000   -0.000061   -0.000000
  -13    4    5    6    8   -0.000087   -0.000000   -0.000227   -0.000000    0.000032    0.000000
  -13    4    5    7    8   -0.000018   -0.000000   -0.000026   -0.000000    0.000010    0.000000
  -13    4    5    8    8    0.000012    0.000000    0.000006   -0.000000    0.000012    0.000000
  -13    5    3    1    1    0.000000   -0.000000   -0.000003    0.000000    0.000053    0.000000
  -13    5    3    2    1   -0.000406   -0.000000   -0.000397   -0.000000    0.000139   -0.000000
  -13    5    3    3    1   -0.000063    0.000000    0.000002    0.000000    0.000001    0.000000
  -13    5    3    4    1   -0.000074   -0.000000   -0.000057   -0.000000   -0.000010    0.000000
  -13    5    3    5    1   -0.000052    0.000000   -0.000108    0.000000   -0.000183    0.000000
  -13    5    3    6    1   -0.000342    0.000000   -0.000336    0.000000    0.000162   -0.000000
  -13    5    3    7    1   -0.000038   -0.000000   -0.000026   -0.000000   -0.000083   -0.000000
  -13    5    3    8    1   -0.000065   -0.000000   -0.000019   -0.000000   -0.000048   -0.000000
  -13    5    3    1    2   -0.000363    0.000000   -0.000162    0.000000    0.000189    0.000000
  -13    5    3    2    2    0.000000   -0.000000   -0.000003    0.000000   -0.000023   -0.000000
  -13    5    3    3    2   -0.000031   -0.000000   -0.000039   -0.000000   -0.000027   -0.000000
  -13    5    3    4    2    0.000175   -0.000000    0.000097   -0.000000   -0.000120   -0.000000
  -13    5    3    5    2   -0.000324   -0.000000   -0.000134   -0.000000    0.000153   -0.000000
  -13    5    3    6    2   -0.000032   -0.000000    0.000035   -0.000000   -0.000301   -0.000000
  -13    5    3    7    2   -0.000114   -0.000000   -0.000066   -0.000000   -0.000030   -0.000000
  -13    5    3    8    2    0.000099   -0.000000    0.000040   -0.000000   -0.000137   -0.000000
  -13    5    3    1    3    0.000005   -0.000000    0.000007   -0.000000    0.000005   -0.000000
  -13    5    3    2    3   -0.000072    0.000000    0.000020    0.000000    0.000014    0.000000
  -13    5    3    3    3    0.000000   -0.000000   -0.000011   -0.000000   -0.000014   -0.000000
  -13    5    3    4    3   -0.000011   -0.000000    0.000005    0.000000    0.000003   -0.000000
  -13    5    3    5    3    0.000061   -0.000000    0.000042   -0.000000    0.000013   -0.000000
  -13    5    3    6    3   -0.000020    0.000000    0.000066    0.000000    0.000003    0.000000
  -13    5    3    7    3    0.000048    0.000000   -0.000026    0.000000   -0.000025    0.000000
  -13    5    3    8    3    0.000020    0.000000    0.000032    0.000000    0.000001    0.000000
  -13    5    3    1    4   -0.000096    0.000000   -0.000023    0.000000   -0.000004    0.000000
  -13    5    3    2    4   -0.000241   -0.000000   -0.000192    0.000000    0.000070   -0.000000
  -13    5    3    3    4   -0.000004   -0.000000   -0.000000    0.000000   -0.000000   -0.000000
  -13    5    3    4    4   -0.000000    0.000000    0.000010    0.000000   -0.000015   -0.000000
  -13    5    3    5    4   -0.000043   -0.000000    0.000020    0.000000    0.000007   -0.000000
  -13    5    3    6    4   -0.000146    0.000000   -0.000122    0.000000    0.000071    0.000000
  -13    5    3    7    4   -0.000012   -0.000000    0.000021   -0.000000    0.000002   -0.000000
  -13    5    3    8    4   -0.000009   -0.000000   -0.000042   -0.000000   -0.000029    0.000000
  -13    5    3    1    5   -0.000096   -0.000000   -0.000138   -0.000000   -0.000147    0.000000
  -13    5    3    2    5   -0.000243    0.000000   -0.000279    0.000000    0.000128   -0.000000
  -13    5    3    3    5   -0.000035   -0.000000    0.000038   -0.000000    0.000026   -0.000000
  -13    5    3    4    5   -0.000058   -0.000000   -0.000031    0.000000    0.000008   -0.000000
  -13    5    3    5    5   -0.000000    0.000000    0.000003   -0.000000   -0.000053   -0.000000
  -13    5    3    6    5   -0.000270    0.000000   -0.000302    0.000000    0.000182    0.000000
  -13    5    3    7    5   -0.000021   -0.000000    0.000002    0.000000    0.000001   -0.000000
  -13    5    3    8    5   -0.000062    0.000000   -0.000004    0.000000    0.000003    0.000000
  -13    5    3    1    6   -0.000237   -0.000000   -0.000066   -0.000000    0.000120   -0.000000
  -13    5    3    2    6   -0.000048    0.000000   -0.000004    0.000000   -0.000246   -0.000000
  -13    5    3    3    6    0.000044   -0.000000   -0.000011   -0.000000   -0.000028   -0.000000
  -13    5    3    4    6    0.000180   -0.000000    0.000068   -0.000000   -0.000108   -0.000000
  -13    5    3    5    6   -0.000220   -0.000000   -0.000034   -0.000000    0.000178   -0.000000
  -13    5    3    6    6   -0.000000    0.000000    0.000003   -0.000000    0.000023    0.000000
  -13    5    3    7    6    0.000008    0.000000   -0.000021   -0.000000   -0.000015   -0.000000
  -13    5    3    8    6    0.000135    0.000000    0.000068    0.000000   -0.000138    0.000000
  -13    5    3    1    7    0.000008    0.000000   -0.000036   -0.000000   -0.000041   -0.000000
  -13    5    3    2    7   -0.000161    0.000000   -0.000062    0.000000    0.000034    0.000000
  -13    5    3    3    7   -0.000015   -0.000000   -0.000050    0.000000   -0.000060    0.000000
  -13    5    3    4    7   -0.000028   -0.000000   -0.000004   -0.000000    0.000006   -0.000000
  -13    5    3    5    7    0.000034   -0.000000    0.000012    0.000000    0.000009    0.000000
  -13    5    3    6    7   -0.000122   -0.000000    0.000009    0.000000    0.000007    0.000000
  -13    5    3    7    7   -0.000000    0.000000    0.000011    0.000000    0.000014    0.000000
  -13    5    3    8    7   -0.000003    0.000000   -0.000001    0.000000   -0.000001    0.000000
  -13    5    3    1    8   -0.000074   -0.000000    0.000031    0.000000   -0.000029   -0.000000
  -13    5    3    2    8   -0.000197    0.000000   -0.000152    0.000000    0.000084    0.000000
  -13    5    3    3    8    0.000029    0.000000    0.000012   -0.000000    0.000007    0.000000
  -13    5    3    4    8   -0.000053   -0.000000   -0.000101   -0.000000   -0.000068   -0.000000
  -13    5    3    5    8   -0.000038   -0.000000    0.000028   -0.000000    0.000005   -0.000000
  -13    5    3    6    8   -0.000138    0.000000   -0.000139   -0.000000    0.000086   -0.000000
  -13    5    3    7    8    0.000006    0.000000   -0.000004   -0.000000   -0.000003    0.000000
  -13    5    3    8    8    0.000000   -0.000000   -0.000010   -0.000000    0.000015    0.000000
  -13    5    4    1    1   -0.000011    0.000000   -0.000007    0.000000    0.000006   -0.000000
  -13    5    4    2    1   -0.000361   -0.000000   -0.000305   -0.000000    0.000089   -0.000000
  -13    5    4    3    1   -0.000062    0.000000   -0.000032    0.000000   -0.000073    0.000000
  -13    5    4    4    1   -0.000040    0.000000   -0.000030    0.000000   -0.000043   -0.000000
  -13    5    4    5    1   -0.000033   -0.000000   -0.000057   -0.000000   -0.000228   -0.000000
  -13    5    4    6    1   -0.000305   -0.000000   -0.000237   -0.000000    0.000068   -0.000000
  -13    5    4    7    1   -0.000033   -0.000000   -0.000027   -0.000000   -0.000102    0.000000
  -13    5    4    8    1   -0.000021   -0.000000   -0.000016   -0.000000   -0.000052    0.000000
  -13    5    4    1    2   -0.000406   -0.000000   -0.000219   -0.000000    0.000064   -0.000000
  -13    5    4    2    2   -0.000012   -0.000000   -0.000011   -0.000000    0.000005    0.000000
  -13    5    4    3    2   -0.000131    0.000000   -0.000082    0.000000   -0.000016    0.000000
  -13    5    4    4    2    0.000000    0.000000    0.000001    0.000000   -0.000113   -0.000000
  -13    5    4    5    2   -0.000264    0.000000   -0.000138    0.000000    0.000046   -0.000000
  -13    5    4    6    2    0.000032    0.000000    0.000048    0.000000   -0.000360    0.000000
  -13    5    4    7    2   -0.000141    0.000000   -0.000080    0.000000    0.000030    0.000000
  -13    5    4    8    2   -0.000021    0.000000   -0.000025    0.000000   -0.000077    0.000000
  -13    5    4    1    3    0.000058    0.000000    0.000015    0.000000    0.000032    0.000000
  -13    5    4    2    3   -0.000036    0.000000    0.000071    0.000000    0.000029    0.000000
  -13    5    4    3    3    0.000008   -0.000000    0.000009   -0.000000    0.000001   -0.000000
  -13    5    4    4    3   -0.000006   -0.000000    0.000024    0.000000    0.000016   -0.000000
  -13    5    4    5    3    0.000060    0.000000    0.000043   -0.000000    0.000081   -0.000000
  -13    5    4    6    3   -0.000010   -0.000000    0.000115   -0.000000    0.000004   -0.000000
  -13    5    4    7    3    0.000010   -0.000000   -0.000009    0.000000   -0.000026    0.000000
  -13    5    4    8    3    0.000017    0.000000    0.000029    0.000000    0.000010    0.000000
  -13    5    4    1    4   -0.000035    0.000000    0.000053    0.000000    0.000022    0.000000
  -13    5    4    2    4   -0.000072    0.000000   -0.000129    0.000000    0.000070    0.000000
  -13    5    4    3    4    0.000000   -0.000000   -0.000021    0.000000    0.000019   -0.000000
  -13    5    4    4    4    0.000011   -0.000000    0.000003   -0.000000   -0.000008    0.000000
  -13    5    4    5    4    0.000003   -0.000000    0.000030    0.000000    0.000055   -0.000000
  -13    5    4    6    4    0.000020   -0.000000   -0.000104   -0.000000    0.000053    0.000000
  -13    5    4    7    4   -0.000002    0.000000    0.000000   -0.000000    0.000020   -0.000000
  -13    5    4    8    4   -0.000006   -0.000000   -0.000018   -0.000000   -0.000044    0.000000
  -13    5    4    1    5   -0.000053   -0.000000   -0.000083   -0.000000   -0.000302   -0.000000
  -13    5    4    2    5   -0.000289    0.000000   -0.000268    0.000000    0.000151    0.000000
  -13    5    4    3    5   -0.000042    0.000000    0.000006    0.000000    0.000004    0.000000
  -13    5    4    4    5   -0.000015   -0.000000   -0.000033    0.000000    0.000005    0.000000
  -13    5    4    5    5    0.000011   -0.000000    0.000007   -0.000000   -0.000006    0.000000
  -13    5    4    6    5   -0.000224   -0.000000   -0.000210   -0.000000    0.000141    0.000000
  -13    5    4    7    5   -0.000052    0.000000   -0.000008    0.000000   -0.000021    0.000000
  -13    5    4    8    5   -0.000015    0.000000   -0.000039    0.000000   -0.000004    0.000000
  -13    5    4    1    6   -0.000264    0.000000   -0.000111    0.000000    0.000171    0.000000
  -13    5    4    2    6   -0.000053   -0.000000    0.000015    0.000000   -0.000440   -0.000000
  -13    5    4    3    6   -0.000019    0.000000   -0.000031    0.000000   -0.000022    0.000000
  -13    5    4    4    6    0.000052    0.000000    0.000030    0.000000   -0.000114   -0.000000
  -13    5    4    5    6   -0.000218   -0.000000   -0.000083   -0.000000    0.000114    0.000000
  -13    5    4    6    6    0.000012    0.000000    0.000011    0.000000   -0.000005   -0.000000
  -13    5    4    7    6   -0.000082   -0.000000   -0.000048   -0.000000   -0.000029   -0.000000
  -13    5    4    8    6    0.000010    0.000000   -0.000009   -0.000000   -0.000132   -0.000000
  -13    5    4    1    7   -0.000009   -0.000000    0.000011    0.000000    0.000007    0.000000
  -13    5    4    2    7   -0.000140    0.000000    0.000009    0.000000    0.000007   -0.000000
  -13    5    4    3    7   -0.000010    0.000000   -0.000008    0.000000   -0.000104   -0.000000
  -13    5    4    4    7    0.000021   -0.000000    0.000004   -0.000000    0.000003   -0.000000
  -13    5    4    5    7    0.000032    0.000000    0.000046    0.000000    0.000075    0.000000
  -13    5    4    6    7   -0.000066    0.000000    0.000081    0.000000    0.000008    0.000000
  -13    5    4    7    7   -0.000008    0.000000   -0.000009    0.000000   -0.000001    0.000000
  -13    5    4    8    7    0.000010    0.000000    0.000011    0.000000    0.000011    0.000000
  -13    5    4    1    8   -0.000012   -0.000000   -0.000011   -0.000000    0.000006   -0.000000
  -13    5    4    2    8   -0.000085   -0.000000   -0.000152    0.000000    0.000063    0.000000
  -13    5    4    3    8    0.000025    0.000000    0.000002    0.000000    0.000002    0.000000
  -13    5    4    4    8   -0.000016   -0.000000   -0.000052   -0.000000   -0.000111   -0.000000
  -13    5    4    5    8    0.000015    0.000000    0.000001    0.000000    0.000048    0.000000
  -13    5    4    6    8   -0.000002    0.000000   -0.000115   -0.000000    0.000069    0.000000
  -13    5    4    7    8   -0.000004    0.000000    0.000017    0.000000    0.000012    0.000000
  -13    5    4    8    8   -0.000011    0.000000   -0.000003    0.000000    0.000008   -0.000000
  -13    5    5    1    1   -0.000055   -0.000000   -0.000031   -0.000000   -0.000014   -0.000000
  -13    5    5    2    1   -0.000282    0.000000   -0.000213    0.000000    0.000033    0.000000
  -13    5    5    3    1   -0.000028    0.000000    0.000009    0.000000   -0.000178    0.000000
  -13    5    5    4    1    0.000009    0.000000   -0.000044    0.000000   -0.000105    0.000000
  -13    5    5    5    1    0.000014   -0.000000   -0.000013   -0.000000   -0.000200   -0.000000
  -13    5    5    6    1   -0.000166    0.000000   -0.000125   -0.000000    0.000073    0.000000
  -13    5    5    7    1    0.000034    0.000000   -0.000007    0.000000   -0.000147   -0.000000
  -13    5    5    8    1    0.000007   -0.000000    0.000026    0.000000   -0.000081    0.000000
  -13    5    5    1    2   -0.000292   -0.000000   -0.000166   -0.000000   -0.000001   -0.000000
  -13    5    5    2    2    0.000006    0.000000    0.000001    0.000000    0.000019    0.000000
  -13    5    5    3    2   -0.000210    0.000000   -0.000139    0.000000   -0.000033   -0.000000
  -13    5    5    4    2   -0.000102    0.000000   -0.000044   -0.000000   -0.000099   -0.000000
  -13    5    5    5    2   -0.000154   -0.000000   -0.000090   -0.000000    0.000002   -0.000000
  -13    5    5    6    2    0.000031    0.000000    0.000029    0.000000   -0.000236    0.000000
  -13    5    5    7    2   -0.000183   -0.000000   -0.000111   -0.000000    0.000003   -0.000000
  -13    5    5    8    2   -0.000083    0.000000   -0.000058   -0.000000   -0.000055    0.000000
  -13    5    5    1    3    0.000072   -0.000000    0.000058    0.000000    0.000111   -0.000000
  -13    5    5    2    3   -0.000004   -0.000000    0.000118    0.000000    0.000025    0.000000
  -13    5    5    3    3    0.000036    0.000000    0.000013    0.000000    0.000004    0.000000
  -13    5    5    4    3    0.000019   -0.000000    0.000018    0.000000    0.000029    0.000000
  -13    5    5    5    3    0.000056   -0.000000    0.000047   -0.000000    0.000132   -0.000000
  -13    5    5    6    3   -0.000025   -0.000000    0.000090   -0.000000    0.000009   -0.000000
  -13    5    5    7    3    0.000012   -0.000000   -0.000036   -0.000000   -0.000035   -0.000000
  -13    5    5    8    3   -0.000010   -0.000000    0.000007   -0.000000    0.000017   -0.000000
  -13    5    5    1    4    0.000022   -0.000000    0.000016   -0.000000    0.000070   -0.000000
  -13    5    5    2    4    0.000041    0.000000   -0.000101   -0.000000    0.000053   -0.000000
  -13    5    5    3    4    0.000001   -0.000000    0.000017   -0.000000    0.000040    0.000000
  -13    5    5    4    4    0.000016    0.000000    0.000018    0.000000   -0.000003    0.000000
  -13    5    5    5    4    0.000019   -0.000000    0.000015   -0.000000    0.000085   -0.000000
  -13    5    5    6    4    0.000044   -0.000000   -0.000060   -0.000000    0.000032   -0.000000
  -13    5    5    7    4   -0.000049   -0.000000    0.000014   -0.000000    0.000028   -0.000000
  -13    5    5    8    4    0.000005    0.000000    0.000024    0.000000   -0.000056    0.000000
  -13    5    5    1    5    0.000030    0.000000   -0.000021    0.000000   -0.000360    0.000000
  -13    5    5    2    5   -0.000274   -0.000000   -0.000220   -0.000000    0.000096    0.000000
  -13    5    5    3    5   -0.000065   -0.000000   -0.000006   -0.000000   -0.000109   -0.000000
  -13    5    5    4    5   -0.000009   -0.000000   -0.000051   -0.000000   -0.000059   -0.000000
  -13    5    5    5    5    0.000055    0.000000    0.000031    0.000000    0.000014    0.000000
  -13    5    5    6    5   -0.000229   -0.000000   -0.000176   -0.000000    0.000098   -0.000000
  -13    5    5    7    5   -0.000047   -0.000000   -0.000029   -0.000000   -0.000151   -0.000000
  -13    5    5    8    5   -0.000020   -0.000000   -0.000020   -0.000000   -0.000080   -0.000000
  -13    5    5    1    6   -0.000243    0.000000   -0.000123    0.000000    0.000050   -0.000000
  -13    5    5    2    6   -0.000011    0.000000    0.000029    0.000000   -0.000628   -0.000000
  -13    5    5    3    6   -0.000093    0.000000   -0.000076   -0.000000   -0.000003   -0.000000
  -13    5    5    4    6   -0.000045   -0.000000    0.000002   -0.000000   -0.000100   -0.000000
  -13    5    5    5    6   -0.000194    0.000000   -0.000098    0.000000    0.000050   -0.000000
  -13    5    5    6    6   -0.000006   -0.000000   -0.000001   -0.000000   -0.000019   -0.000000
  -13    5    5    7    6   -0.000119   -0.000000   -0.000080   -0.000000    0.000024    0.000000
  -13    5    5    8    6   -0.000055   -0.000000   -0.000024   -0.000000   -0.000075    0.000000
  -13    5    5    1    7    0.000047    0.000000    0.000052    0.000000    0.000098    0.000000
  -13    5    5    2    7   -0.000086   -0.000000    0.000062    0.000000    0.000011   -0.000000
  -13    5    5    3    7   -0.000020   -0.000000   -0.000021    0.000000   -0.000142    0.000000
  -13    5    5    4    7    0.000007    0.000000    0.000008    0.000000    0.000016   -0.000000
  -13    5    5    5    7    0.000030    0.000000    0.000022    0.000000    0.000144    0.000000
  -13    5    5    6    7   -0.000046   -0.000000    0.000085   -0.000000   -0.000015   -0.000000
  -13    5    5    7    7   -0.000036   -0.000000   -0.000013   -0.000000   -0.000004   -0.000000
  -13    5    5    8    7    0.000004    0.000000   -0.000017   -0.000000    0.000023   -0.000000
  -13    5    5    1    8    0.000026    0.000000    0.000002   -0.000000    0.000060    0.000000
  -13    5    5    2    8    0.000001    0.000000   -0.000122    0.000000    0.000056    0.000000
  -13    5    5    3    8    0.000008   -0.000000    0.000007   -0.000000    0.000015    0.000000
  -13    5    5    4    8   -0.000015    0.000000   -0.000032   -0.000000   -0.000160    0.000000
  -13    5    5    5    8   -0.000006    0.000000    0.000021   -0.000000    0.000090    0.000000
  -13    5    5    6    8    0.000041   -0.000000   -0.000078    0.000000    0.000033   -0.000000
  -13    5    5    7    8   -0.000020   -0.000000    0.000009    0.000000    0.000026   -0.000000
  -13    5    5    8    8   -0.000016   -0.000000   -0.000018   -0.000000    0.000003   -0.000000
  -12    0    6    1    1    0.000000    0.000000    0.000005    0.000000   -0.000002   -0.000000
  -12    0    6    2    1   -0.000036   -0.000000   -0.000052    0.000000   -0.000021   -0.000000
  -12    0    6    3    1   -0.000039   -0.000000   -0.000001    0.000000   -0.000000    0.000000
  -12    0    6    4    1   -0.000021   -0.000000    0.000042   -0.000000    0.000076    0.000000
  -12    0    6    5    1   -0.000023    0.000000   -0.000018    0.000000   -0.000049    0.000000
  -12    0    6    6    1   -0.000020    0.000000   -0.000043   -0.000000    0.000060    0.000000
  -12    0    6    7    1    0.000034    0.000000   -0.000029   -0.000000   -0.000005    0.000000
  -12    0    6    8    1   -0.000036    0.000000    0.000061   -0.000000    0.000092    0.000000
  -12    0    6    1    2   -0.000014    0.000000   -0.000033   -0.000000    0.000044    0.000000
  -12    0    6    2    2    0.000000    0.000000    0.000008   -0.000000    0.000007    0.000000
  -12    0    6    3    2    0.000018    0.000000    0.000007    0.000000    0.000005    0.000000
  -12    0    6    4    2    0.000121    0.000000    0.000069    0.000000    0.000062    0.000000
  -12    0    6    5    2    0.000006    0.000000   -0.000025   -0.000000    0.000050    0.000000
  -12    0    6    6    2    0.000001    0.000000    0.000018    0.000000    0.000053    0.000000
  -12    0    6    7    2    0.000012    0.000000    0.000016    0.000000    0.000024    0.000000
  -12    0    6    8    2    0.000124    0.000000    0.000059   -0.000000    0.000033   -0.000000
  -12    0    6    1    3   -0.000025   -0.000000   -0.000004   -0.000000   -0.000003    0.000000
  -12    0    6    2    3    0.000008    0.000000    0.000004    0.000000    0.000003    0.000000
  -12    0    6    3    3    0.000000    0.000000    0.000009   -0.000000   -0.000014   -0.000000
  -12    0    6    4    3    0.000038    0.000000    0.000003    0.000000    0.000002   -0.000000
  -12    0    6    5    3    0.000023    0.000000    0.000005   -0.000000    0.000029    0.000000
  -12    0    6    6    3    0.000005   -0.000000    0.000004    0.000000    0.000028   -0.000000
  -12    0    6    7    3    0.000065    0.000000   -0.000002    0.000000   -0.000031    0.000000
  -12    0    6    8    3   -0.000003   -0.000000    0.000017    0.000000    0.000001   -0.000000
  -12    0    6    1    4   -0.000042   -0.000000    0.000022    0.000000   -0.000088   -0.000000
  -12    0    6    2    4   -0.000128    0.000000   -0.000034   -0.000000   -0.000110    0.000000
  -12    0    6    3    4    0.000018    0.000000    0.000005    0.000000    0.000003    0.000000
  -12    0    6    4    4   -0.000000    0.000000   -0.000022   -0.000000    0.000013    0.000000
  -12    0    6    5    4   -0.000023    0.000000    0.000020   -0.000000   -0.000100    0.000000
  -12    0    6    6    4   -0.000113    0.000000   -0.000083   -0.000000   -0.000117    0.000000
  -12    0    6    7    4   -0.000038    0.000000   -0.000018   -0.000000    0.000007    0.000000
  -12    0    6    8    4    0.000021    0.000000    0.000001    0.000000    0.000025    0.000000
  -12    0    6    1    5   -0.000030   -0.000000   -0.000021   -0.000000   -0.000020   -0.000000
  -12    0    6    2    5   -0.000019    0.000000   -0.000046   -0.000000    0.000011   -0.000000
  -12    0    6    3    5   -0.000006   -0.000000    0.000018   -0.000000    0.000008    0.000000
  -12    0    6    4    5    0.000012    0.000000    0.000051   -0.000000    0.000079    0.000000
  -12    0    6    5    5   -0.000000   -0.000000   -0.000005   -0.000000    0.000002    0.000000
  -12    0    6    6    5   -0.000014    0.000000   -0.000041   -0.000000    0.000050    0.000000
  -12    0    6    7    5    0.000030    0.000000    0.000001    0.000000    0.000001    0.000000
  -12    0    6    8    5   -0.000020   -0.000000    0.000071    0.000000    0.000085   -0.000000
  -12    0    6    1    6   -0.000016   -0.000000   -0.000003    0.000000    0.000081    0.000000
  -12    0    6    2    6   -0.000035    0.000000   -0.000008    0.000000    0.000017    0.000000
  -12    0    6    3    6    0.000036   -0.000000    0.000009    0.000000    0.000012   -0.000000
  -12    0    6    4    6    0.000068    0.000000    0.000002   -0.000000    0.000021   -0.000000
  -12    0    6    5    6   -0.000014   -0.000000   -0.000013    0.000000    0.000068   -0.000000
  -12    0    6    6    6   -0.000000   -0.000000   -0.000008    0.000000   -0.000007   -0.000000
  -12    0    6    7    6    0.000015    0.000000   -0.000001   -0.000000   -0.000001    0.000000
  -12    0    6    8    6    0.000075   -0.000000    0.000011    0.000000    0.000019   -0.000000
  -12    0    6    1    7   -0.000009    0.000000   -0.000005   -0.000000   -0.000044    0.000000
  -12    0    6    2    7    0.000038    0.000000    0.000018   -0.000000    0.000012    0.000000
  -12    0    6    3    7    0.000019    0.000000    0.000004    0.000000   -0.000018    0.000000
  -12    0    6    4    7    0.000019    0.000000    0.000010    0.000000    0.000041    0.000000
  -12    0    6    5    7    0.000036   -0.000000    0.000005    0.000000    0.000003   -0.000000
  -12    0    6    6    7    0.000030    0.000000   -0.000002    0.000000   -0.000001   -0.000000
  -12    0    6    7    7   -0.000000   -0.000000   -0.000009    0.000000    0.000014    0.000000
  -12    0    6    8    7    0.000025    0.000000   -0.000000    0.000000   -0.000000   -0.000000
  -12    0    6    1    8   -0.000076    0.000000    0.000006   -0.000000   -0.000068    0.000000
  -12    0    6    2    8   -0.000105    0.000000   -0.000024   -0.000000   -0.000106   -0.000000
  -12    0    6    3    8    0.000027   -0.000000    0.000032    0.000000    0.000018   -0.000000
  -12    0    6    4    8    0.000027    0.000000    0.000015    0.000000    0.000044   -0.000000
  -12    0    6    5    8   -0.000011    0.000000    0.000048    0.000000   -0.000070   -0.000000
  -12    0    6    6    8   -0.000088   -0.000000   -0.000055    0.000000   -0.000086   -0.000000
  -12    0    6    7    8    0.000040    0.000000    0.000003    0.000000    0.000002    0.000000
  -12    0    6    8    8    0.000000   -0.000000    0.000022    0.000000   -0.000013   -0.000000
  -12    1    5    1    1   -0.000000    0.000000    0.000029   -0.000000    0.000029    0.000000
  -12    1    5    2    1   -0.000063   -0.000000   -0.000090   -0.000000   -0.000019   -0.000000
  -12    1    5    3    1    0.000074   -0.000000    0.000015    0.000000    0.000011   -0.000000
  -12    1    5    4    1   -0.000037    0.000000    0.000038    0.000000    0.000087    0.000000
  -12    1    5    5    1    0.000091   -0.000000   -0.000047    0.000000   -0.000096    0.000000
  -12    1    5    6    1   -0.000016    0.000000   -0.000014    0.000000    0.000020   -0.000000
  -12    1    5    7    1   -0.000035   -0.000000   -0.000002   -0.000000    0.000031   -0.000000
  -12    1    5    8    1    0.000046   -0.000000    0.000033    0.000000    0.000078   -0.000000
  -12    1    5    1    2   -0.000016    0.000000   -0.000004    0.000000    0.000064    0.000000
  -12    1    5    2    2   -0.000000   -0.000000    0.000019    0.000000   -0.000029   -0.000000
  -12    1    5    3    2   -0.000022    0.000000    0.000004    0.000000    0.000003   -0.000000
  -12    1    5    4    2    0.000169    0.000000    0.000031   -0.000000    0.000027    0.000000
  -12    1    5    5    2   -0.000100    0.000000   -0.000003    0.000000   -0.000017    0.000000
  -12    1    5    6    2    0.000028   -0.000000   -0.000028   -0.000000   -0.000045   -0.000000
  -12    1    5    7    2   -0.000016    0.000000   -0.000021    0.000000    0.000014   -0.000000
  -12    1    5    8    2    0.000133   -0.000000    0.000042   -0.000000   -0.000003   -0.000000
  -12    1    5    1    3   -0.000015    0.000000   -0.000004    0.000000   -0.000003    0.000000
  -12    1    5    2    3    0.000093    0.000000    0.000001    0.000000    0.000000    0.000000
  -12    1    5    3    3   -0.000000    0.000000   -0.000026   -0.000000   -0.000018    0.000000
  -12    1    5    4    3    0.000036   -0.000000   -0.000000   -0.000000   -0.000000    0.000000
  -12    1    5    5    3    0.000086   -0.000000   -0.000058   -0.000000   -0.000041   -0.000000
  -12    1    5    6    3    0.000010    0.000000   -0.000004   -0.000000    0.000022   -0.000000
  -12    1    5    7    3    0.000013   -0.000000    0.000026    0.000000    0.000004    0.000000
  -12    1    5    8    3    0.000044    0.000000   -0.000043    0.000000   -0.000074    0.000000
  -12    1    5    1    4   -0.000034    0.000000    0.000024    0.000000   -0.000072    0.000000
  -12    1    5    2    4   -0.000191   -0.000000   -0.000058    0.000000   -0.000114   -0.000000
  -12    1    5    3    4   -0.000081    0.000000   -0.000007   -0.000000   -0.000005    0.000000
  -12    1    5    4    4   -0.000000    0.000000   -0.000032    0.000000    0.000023   -0.000000
  -12    1    5    5    4   -0.000127   -0.000000   -0.000002    0.000000   -0.000080   -0.000000
  -12    1    5    6    4   -0.000192    0.000000   -0.000115    0.000000   -0.000118    0.000000
  -12    1    5    7    4    0.000021   -0.000000   -0.000037   -0.000000   -0.000033   -0.000000
  -12    1    5    8    4   -0.000088    0.000000    0.000000   -0.000000    0.000022   -0.000000
  -12    1    5    1    5   -0.000034    0.000000    0.000005    0.000000   -0.000014    0.000000
  -12    1    5    2    5    0.000066   -0.000000   -0.000049    0.000000   -0.000008    0.000000
  -12    1    5    3    5   -0.000057    0.000000   -0.000035    0.000000   -0.000045    0.000000
  -12    1    5    4    5    0.000021   -0.000000    0.000006    0.000000    0.000082   -0.000000
  -12    1    5    5    5    0.000000   -0.000000   -0.000029    0.000000   -0.000029   -0.000000
  -12    1    5    6    5   -0.000028    0.000000   -0.000086   -0.000000    0.000043   -0.000000
  -12    1    5    7    5    0.000020   -0.000000   -0.000000    0.000000   -0.000000    0.000000
  -12    1    5    8    5   -0.000026    0.000000    0.000016    0.000000    0.000037    0.000000
  -12    1    5    1    6   -0.000056    0.000000   -0.000018    0.000000    0.000029   -0.000000
  -12    1    5    2    6    0.000048    0.000000    0.000014   -0.000000    0.000021   -0.000000
  -12    1    5    3    6   -0.000016    0.000000   -0.000001   -0.000000    0.000030    0.000000
  -12    1    5    4    6    0.000182   -0.000000    0.000022   -0.000000    0.000080   -0.000000
  -12    1    5    5    6   -0.000022   -0.000000    0.000009   -0.000000    0.000124    0.000000
  -12    1    5    6    6    0.000000    0.000000   -0.000019   -0.000000    0.000029    0.000000
  -12    1    5    7    6    0.000084    0.000000    0.000012   -0.000000    0.000008   -0.000000
  -12    1    5    8    6    0.000124    0.000000    0.000026   -0.000000    0.000083    0.000000
  -12    1    5    1    7    0.000059    0.000000   -0.000002   -0.000000   -0.000016   -0.000000
  -12    1    5    2    7   -0.000018   -0.000000    0.000027    0.000000    0.000029   -0.000000
  -12    1    5    3    7   -0.000073    0.000000   -0.000029    0.000000   -0.000051    0.000000
  -12    1    5    4    7   -0.000028   -0.000000   -0.000002   -0.000000    0.000026   -0.000000
  -12    1    5    5    7   -0.000094    0.000000   -0.000001    0.000000   -0.000001   -0.000000
  -12    1    5    6    7   -0.000013    0.000000   -0.000005   -0.000000   -0.000004   -0.000000
  -12    1    5    7    7    0.000000   -0.000000    0.000026    0.000000    0.000018   -0.000000
  -12    1    5    8    7   -0.000086    0.000000   -0.000006    0.000000   -0.000005    0.000000
  -12    1    5    1    8   -0.000065   -0.000000   -0.000007   -0.000000   -0.000039   -0.000000
  -12    1    5    2    8   -0.000075    0.000000   -0.000038    0.000000   -0.000114    0.000000
  -12    1    5    3    8   -0.000047    0.000000   -0.000002   -0.000000   -0.000021    0.000000
  -12    1    5    4    8    0.000052    0.000000    0.000014   -0.000000    0.000040    0.000000
  -12    1    5    5    8   -0.000034    0.000000   -0.000002   -0.000000   -0.000104    0.000000
  -12    1    5    6    8   -0.000130   -0.000000   -0.000089    0.000000   -0.000098   -0.000000
  -12    1    5    7    8    0.000032    0.000000    0.000005    0.000000    0.000003   -0.000000
  -12    1    5    8    8    0.000000   -0.000000    0.000032   -0.000000   -0.000023    0.000000
  -12    1    6    1    1   -0.000034   -0.000000    0.000015   -0.000000   -0.000024    0.000000
  -12    1    6    2    1   -0.000096    0.000000   -0.000021    0.000000    0.000028   -0.000000
  -12    1    6    3    1   -0.000045    0.000000   -0.000016    0.000000   -0.000076    0.000000
  -12    1    6    4    1   -0.000078   -0.000000    0.000044   -0.000000    0.000149    0.000000
  -12    1    6    5    1   -0.000071   -0.000000   -0.000049   -0.000000   -0.000127   -0.000000
  -12    1    6    6    1   -0.000101   -0.000000   -0.000014    0.000000    0.000027   -0.000000
  -12    1    6    7    1   -0.000049   -0.000000   -0.000030    0.000000   -0.000101   -0.000000
  -12    1    6    8    1   -0.000077    0.000000    0.000044    0.000000    0.000119    0.000000
  -12    1    6    1    2   -0.000041   -0.000000   -0.000017    0.000000    0.000019   -0.000000
  -12    1    6    2    2    0.000021    0.000000   -0.000008    0.000000    0.000015    0.000000
  -12    1    6    3    2   -0.000008   -0.000000   -0.000014    0.000000   -0.000098    0.000000
  -12    1    6    4    2    0.000207   -0.000000    0.000065    0.000000    0.000047   -0.000000
  -12    1    6    5    2   -0.000016   -0.000000   -0.000024    0.000000   -0.000043    0.000000
  -12    1    6    6    2   -0.000018    0.000000   -0.000019   -0.000000   -0.000050   -0.000000
  -12    1    6    7    2   -0.000073    0.000000    0.000015   -0.000000   -0.000029    0.000000
  -12    1    6    8    2    0.000187    0.000000    0.000039   -0.000000   -0.000015    0.000000
  -12    1    6    1    3    0.000005   -0.000000    0.000002    0.000000    0.000024   -0.000000
  -12    1    6    2    3   -0.000024    0.000000    0.000030   -0.000000    0.000058   -0.000000
  -12    1    6    3    3    0.000025    0.000000    0.000021    0.000000    0.000010   -0.000000
  -12    1    6    4    3   -0.000026   -0.000000    0.000021    0.000000   -0.000016   -0.000000
  -12    1    6    5    3    0.000027   -0.000000    0.000044    0.000000    0.000094   -0.000000
  -12    1    6    6    3    0.000001   -0.000000    0.000018    0.000000    0.000009   -0.000000
  -12    1    6    7    3    0.000001   -0.000000    0.000006    0.000000   -0.000030   -0.000000
  -12    1    6    8    3    0.000003    0.000000    0.000007   -0.000000    0.000010    0.000000
  -12    1    6    1    4   -0.000066    0.000000   -0.000008    0.000000   -0.000135    0.000000
  -12    1    6    2    4   -0.000152    0.000000   -0.000108   -0.000000   -0.000147    0.000000
  -12    1    6    3    4    0.000002    0.000000    0.000012   -0.000000   -0.000029    0.000000
  -12    1    6    4    4   -0.000010    0.000000   -0.000033    0.000000    0.000009   -0.000000
  -12    1    6    5    4    0.000032    0.000000   -0.000002    0.000000   -0.000128   -0.000000
  -12    1    6    6    4   -0.000101   -0.000000   -0.000114    0.000000   -0.000095   -0.000000
  -12    1    6    7    4    0.000001   -0.000000    0.000002    0.000000    0.000000   -0.000000
  -12    1    6    8    4    0.000039   -0.000000   -0.000004   -0.000000    0.000011    0.000000
  -12    1    6    1    5   -0.000016   -0.000000   -0.000061   -0.000000   -0.000055    0.000000
  -12    1    6    2    5   -0.000039    0.000000   -0.000035   -0.000000    0.000062   -0.000000
  -12    1    6    3    5    0.000035   -0.000000   -0.000003   -0.000000   -0.000002    0.000000
  -12    1    6    4    5   -0.000014   -0.000000    0.000084    0.000000    0.000149   -0.000000
  -12    1    6    5    5    0.000034    0.000000   -0.000015    0.000000    0.000024   -0.000000
  -12    1    6    6    5   -0.000070   -0.000000   -0.000001    0.000000    0.000016   -0.000000
  -12    1    6    7    5   -0.000015   -0.000000    0.000028    0.000000   -0.000053   -0.000000
  -12    1    6    8    5    0.000009    0.000000    0.000071   -0.000000    0.000159    0.000000
  -12    1    6    1    6   -0.000033    0.000000   -0.000012    0.000000    0.000027    0.000000
  -12    1    6    2    6   -0.000011    0.000000   -0.000042    0.000000   -0.000099    0.000000
  -12    1    6    3    6    0.000059    0.000000    0.000006   -0.000000    0.000004   -0.000000
  -12    1    6    4    6    0.000134   -0.000000    0.000010    0.000000    0.000013   -0.000000
  -12    1    6    5    6    0.000026   -0.000000   -0.000013    0.000000   -0.000025   -0.000000
  -12    1    6    6    6   -0.000021   -0.000000    0.000008   -0.000000   -0.000015   -0.000000
  -12    1    6    7    6   -0.000033    0.000000    0.000008    0.000000    0.000034   -0.000000
  -12    1    6    8    6    0.000167   -0.000000   -0.000002    0.000000   -0.000034   -0.000000
  -12    1    6    1    7   -0.000015    0.000000   -0.000007    0.000000   -0.000005   -0.000000
  -12    1    6    2    7    0.000061   -0.000000    0.000005   -0.000000    0.000003   -0.000000
  -12    1    6    3    7    0.000002    0.000000    0.000008    0.000000    0.000010   -0.000000
  -12    1    6    4    7    0.000039    0.000000    0.000005   -0.000000    0.000003   -0.000000
  -12    1    6    5    7    0.000045    0.000000    0.000049    0.000000    0.000097    0.000000
  -12    1    6    6    7    0.000031    0.000000   -0.000030    0.000000   -0.000044    0.000000
  -12    1    6    7    7   -0.000025   -0.000000   -0.000021   -0.000000   -0.000010    0.000000
  -12    1    6    8    7    0.000034   -0.000000   -0.000010    0.000000    0.000016   -0.000000
  -12    1    6    1    8   -0.000035   -0.000000   -0.000002    0.000000   -0.000100   -0.000000
  -12    1    6    2    8   -0.000154    0.000000   -0.000082    0.000000   -0.000111    0.000000
  -12    1    6    3    8    0.000044   -0.000000    0.000002    0.000000    0.000002    0.000000
  -12    1    6    4    8    0.000004   -0.000000    0.000014   -0.000000    0.000073    0.000000
  -12    1    6    5    8    0.000028    0.000000    0.000002   -0.000000   -0.000135    0.000000
  -12    1    6    6    8   -0.000135   -0.000000   -0.000101   -0.000000   -0.000104   -0.000000
  -12    1    6    7    8   -0.000033    0.000000   -0.000011   -0.000000   -0.000012    0.000000
  -12    1    6    8    8    0.000010   -0.000000    0.000033   -0.000000   -0.000009    0.000000
  -12    2    4    1    1   -0.000000    0.000000    0.000015   -0.000000    0.000009   -0.000000
  -12    2    4    2    1   -0.000083    0.000000   -0.000087    0.000000    0.000028    0.000000
  -12    2    4    3    1   -0.000020   -0.000000    0.000004   -0.000000    0.000003   -0.000000
  -12    2    4    4    1   -0.000021   -0.000000    0.000037    0.000000    0.000121   -0.000000
  -12    2    4    5    1    0.000011   -0.000000   -0.000055   -0.000000   -0.000090   -0.000000
  -12    2    4    6    1   -0.000129   -0.000000   -0.000101   -0.000000    0.000003    0.000000
  -12    2    4    7    1   -0.000027   -0.000000    0.000002    0.000000   -0.000022    0.000000
  -12    2    4    8    1   -0.000024   -0.000000    0.000022    0.000000    0.000119    0.000000
  -12    2    4    1    2   -0.000094   -0.000000   -0.000052   -0.000000    0.000064   -0.000000
  -12    2    4    2    2    0.000000   -0.000000    0.000016   -0.000000   -0.000015    0.000000
  -12    2    4    3    2    0.000004    0.000000   -0.000009    0.000000   -0.000006   -0.000000
  -12    2    4    4    2    0.000290    0.000000    0.000108    0.000000    0.000063   -0.000000
  -12    2    4    5    2   -0.000121    0.000000   -0.000037    0.000000    0.000043    0.000000
  -12    2    4    6    2   -0.000025    0.000000   -0.000029    0.000000   -0.000115    0.000000
  -12    2    4    7    2   -0.000034    0.000000    0.000003    0.000000   -0.000028    0.000000
  -12    2    4    8    2    0.000222    0.000000    0.000089    0.000000    0.000012    0.000000
  -12    2    4    1    3    0.000006    0.000000    0.000001    0.000000    0.000000    0.000000
  -12    2    4    2    3    0.000014   -0.000000    0.000002    0.000000    0.000002   -0.000000
  -12    2    4    3    3   -0.000000    0.000000   -0.000024    0.000000    0.000003    0.000000
  -12    2    4    4    3   -0.000018   -0.000000   -0.000003   -0.000000   -0.000002   -0.000000
  -12    2    4    5    3    0.000041   -0.000000   -0.000001    0.000000   -0.000006   -0.000000
  -12    2    4    6    3    0.000015   -0.000000   -0.000011   -0.000000    0.000017   -0.000000
  -12    2    4    7    3    0.000003   -0.000000    0.000008   -0.000000   -0.000007   -0.000000
  -12    2    4    8    3   -0.000010   -0.000000   -0.000039   -0.000000   -0.000016   -0.000000
  -12    2    4    1    4   -0.000055   -0.000000    0.000003   -0.000000   -0.000043   -0.000000
  -12    2    4    2    4   -0.000282    0.000000   -0.000153    0.000000   -0.000097    0.000000
  -12    2    4    3    4    0.000001    0.000000    0.000006   -0.000000    0.000004    0.000000
  -12    2    4    4    4    0.000000    0.000000   -0.000022    0.000000    0.000012   -0.000000
  -12    2    4    5    4   -0.000043    0.000000   -0.000034   -0.000000   -0.000053    0.000000
  -12    2    4    6    4   -0.000213   -0.000000   -0.000152   -0.000000   -0.000053   -0.000000
  -12    2    4    7    4   -0.000023    0.000000    0.000009    0.000000   -0.000034    0.000000
  -12    2    4    8    4    0.000007    0.000000   -0.000025    0.000000   -0.000006    0.000000
  -12    2    4    1    5   -0.000027    0.000000   -0.000022   -0.000000   -0.000033    0.000000
  -12    2    4    2    5   -0.000040   -0.000000   -0.000060   -0.000000   -0.000003    0.000000
  -12    2    4    3    5   -0.000023    0.000000   -0.000012    0.000000    0.000015    0.000000
  -12    2    4    4    5   -0.000004    0.000000    0.000028   -0.000000    0.000096    0.000000
  -12    2    4    5    5    0.000000   -0.000000   -0.000015    0.000000   -0.000009    0.000000
  -12    2    4    6    5   -0.000072   -0.000000   -0.000096   -0.000000    0.000037   -0.000000
  -12    2    4    7    5   -0.000007   -0.000000   -0.000000   -0.000000   -0.000000    0.000000
  -12    2    4    8    5   -0.000033   -0.000000    0.000023    0.000000    0.000079   -0.000000
  -12    2    4    1    6   -0.000048    0.000000    0.000008   -0.000000    0.000027    0.000000
  -12    2    4    2    6    0.000037   -0.000000   -0.000008   -0.000000   -0.000030    0.000000
  -12    2    4    3    6    0.000013    0.000000   -0.000019   -0.000000   -0.000016    0.000000
  -12    2    4    4    6    0.000173    0.000000    0.000019   -0.000000    0.000030    0.000000
  -12    2    4    5    6   -0.000045    0.000000   -0.000016    0.000000    0.000049   -0.000000
  -12    2    4    6    6   -0.000000    0.000000   -0.000016    0.000000    0.000015   -0.000000
  -12    2    4    7    6    0.000016   -0.000000    0.000001   -0.000000    0.000000    0.000000
  -12    2    4    8    6    0.000170   -0.000000    0.000015   -0.000000   -0.000000    0.000000
  -12    2    4    1    7    0.000013   -0.000000   -0.000033    0.000000   -0.000010    0.000000
  -12    2    4    2    7   -0.000035   -0.000000   -0.000013    0.000000    0.000003   -0.000000
  -12    2    4    3    7    0.000005    0.000000   -0.000020    0.000000   -0.000038    0.000000
  -12    2    4    4    7    0.000003    0.000000    0.000014   -0.000000    0.000028    0.000000
  -12    2    4    5    7    0.000011    0.000000    0.000005    0.000000    0.000003   -0.000000
  -12    2    4    6    7   -0.000012    0.000000    0.000005   -0.000000    0.000004    0.000000
  -12    2    4    7    7    0.000000   -0.000000    0.000024   -0.000000   -0.000003   -0.000000
  -12    2    4    8    7    0.000012    0.000000   -0.000003    0.000000   -0.000002   -0.000000
  -12    2    4    1    8   -0.000045    0.000000   -0.000003   -0.000000   -0.000035    0.000000
  -12    2    4    2    8   -0.000191   -0.000000   -0.000093    0.000000   -0.000080   -0.000000
  -12    2    4    3    8    0.000004    0.000000    0.000012   -0.000000    0.000011    0.000000
  -12    2    4    4    8   -0.000013   -0.000000    0.000001    0.000000    0.000029    0.000000
  -12    2    4    5    8   -0.000028   -0.000000   -0.000014    0.000000   -0.000078    0.000000
  -12    2    4    6    8   -0.000200   -0.000000   -0.000118   -0.000000   -0.000063    0.000000
  -12    2    4    7    8   -0.000021   -0.000000   -0.000001    0.000000   -0.000001   -0.000000
  -12    2    4    8    8   -0.000000   -0.000000    0.000022   -0.000000   -0.000012    0.000000
  -12    2    5    1    1    0.000002   -0.000000   -0.000004    0.000000    0.000002   -0.000000
  -12    2    5    2    1   -0.000170    0.000000   -0.000073    0.000000   -0.000027    0.000000
  -12    2    5    3    1   -0.000002    0.000000   -0.000026    0.000000   -0.000046    0.000000
  -12    2    5    4    1   -0.000041   -0.000000    0.000033   -0.000000    0.000181   -0.000000
  -12    2    5    5    1    0.000002    0.000000   -0.000071    0.000000   -0.000169    0.000000
  -12    2    5    6    1   -0.000133    0.000000   -0.000057   -0.000000   -0.000018    0.000000
  -12    2    5    7    1   -0.000042    0.000000   -0.000007    0.000000   -0.000069   -0.000000
  -12    2    5    8    1   -0.000029   -0.000000    0.000021   -0.000000    0.000136   -0.000000
  -12    2    5    1    2   -0.000159    0.000000   -0.000010    0.000000   -0.000006    0.000000
  -12    2    5    2    2   -0.000003   -0.000000    0.000004    0.000000    0.000004   -0.000000
  -12    2    5    3    2   -0.000088   -0.000000   -0.000007   -0.000000   -0.000017   -0.000000
  -12    2    5    4    2    0.000271   -0.000000    0.000068   -0.000000    0.000055    0.000000
  -12    2    5    5    2   -0.000161    0.000000   -0.000012   -0.000000   -0.000014    0.000000
  -12    2    5    6    2    0.000029   -0.000000   -0.000049    0.000000   -0.000183    0.000000
  -12    2    5    7    2   -0.000101   -0.000000   -0.000065   -0.000000   -0.000004   -0.000000
  -12    2    5    8    2    0.000169   -0.000000    0.000087   -0.000000    0.000010   -0.000000
  -12    2    5    1    3    0.000046   -0.000000   -0.000030   -0.000000   -0.000002    0.000000
  -12    2    5    2    3    0.000001   -0.000000    0.000014   -0.000000    0.000051   -0.000000
  -12    2    5    3    3    0.000002   -0.000000    0.000015    0.000000    0.000003   -0.000000
  -12    2    5    4    3   -0.000025    0.000000    0.000020    0.000000   -0.000040    0.000000
  -12    2    5    5    3    0.000062    0.000000    0.000037    0.000000    0.000059    0.000000
  -12    2    5    6    3    0.000033    0.000000    0.000067    0.000000    0.000023    0.000000
  -12    2    5    7    3   -0.000021    0.000000    0.000016    0.000000   -0.000009   -0.000000
  -12    2    5    8    3   -0.000005   -0.000000   -0.000006    0.000000   -0.000007   -0.000000
  -12    2    5    1    4   -0.000069   -0.000000   -0.000014   -0.000000   -0.000091   -0.000000
  -12    2    5    2    4   -0.000219   -0.000000   -0.000139    0.000000   -0.000102    0.000000
  -12    2    5    3    4   -0.000037    0.000000   -0.000017    0.000000   -0.000012    0.000000
  -12    2    5    4    4   -0.000009    0.000000   -0.000009   -0.000000   -0.000001   -0.000000
  -12    2    5    5    4   -0.000027    0.000000   -0.000023   -0.000000   -0.000091    0.000000
  -12    2    5    6    4   -0.000174    0.000000   -0.000144    0.000000   -0.000067    0.000000
  -12    2    5    7    4   -0.000015    0.000000    0.000011    0.000000   -0.000033    0.000000
  -12    2    5    8    4    0.000007    0.000000   -0.000017    0.000000   -0.000007   -0.000000
  -12    2    5    1    5   -0.000017   -0.000000   -0.000064   -0.000000   -0.000113   -0.000000
  -12    2    5    2    5   -0.000076   -0.000000   -0.000053   -0.000000    0.000024   -0.000000
  -12    2    5    3    5   -0.000011   -0.000000    0.000006   -0.000000    0.000004   -0.000000
  -12    2    5    4    5   -0.000023    0.000000    0.000066    0.000000    0.000153    0.000000
  -12    2    5    5    5   -0.000002    0.000000    0.000004   -0.000000   -0.000002    0.000000
  -12    2    5    6    5   -0.000066    0.000000   -0.000042    0.000000    0.000021    0.000000
  -12    2    5    7    5   -0.000059   -0.000000    0.000009   -0.000000   -0.000005    0.000000
  -12    2    5    8    5    0.000006   -0.000000    0.000039    0.000000    0.000133   -0.000000
  -12    2    5    1    6   -0.000073   -0.000000   -0.000035   -0.000000    0.000040   -0.000000
  -12    2    5    2    6   -0.000008   -0.000000   -0.000028   -0.000000   -0.000083    0.000000
  -12    2    5    3    6    0.000003   -0.000000   -0.000005    0.000000   -0.000004   -0.000000
  -12    2    5    4    6    0.000191    0.000000    0.000069    0.000000    0.000037    0.000000
  -12    2    5    5    6   -0.000065   -0.000000   -0.000000   -0.000000    0.000038    0.000000
  -12    2    5    6    6    0.000003    0.000000   -0.000004   -0.000000   -0.000004    0.000000
  -12    2    5    7    6   -0.000052    0.000000    0.000031    0.000000   -0.000016    0.000000
  -12    2    5    8    6    0.000169    0.000000    0.000038    0.000000    0.000008    0.000000
  -12    2    5    1    7   -0.000013   -0.000000    0.000006   -0.000000    0.000004   -0.000000
  -12    2    5    2    7   -0.000015   -0.000000    0.000004   -0.000000    0.000003    0.000000
  -12    2    5    3    7   -0.000000   -0.000000   -0.000003    0.000000   -0.000037   -0.000000
  -12    2    5    4    7   -0.000012    0.000000   -0.000003    0.000000   -0.000002    0.000000
  -12    2    5    5    7    0.000011    0.000000    0.000038    0.000000    0.000078   -0.000000
  -12    2    5    6    7   -0.000009    0.000000    0.000038    0.000000    0.000019    0.000000
  -12    2    5    7    7   -0.000002    0.000000   -0.000015   -0.000000   -0.000003    0.000000
  -12    2    5    8    7   -0.000012   -0.000000    0.000020    0.000000   -0.000003   -0.000000
  -12    2    5    1    8   -0.000044    0.000000   -0.000005    0.000000   -0.000117    0.000000
  -12    2    5    2    8   -0.000202   -0.000000   -0.000127   -0.000000   -0.000078   -0.000000
  -12    2    5    3    8   -0.000019    0.000000    0.000001    0.000000    0.000000    0.000000
  -12    2    5    4    8    0.000002    0.000000    0.000006    0.000000    0.000037    0.000000
  -12    2    5    5    8   -0.000008   -0.000000   -0.000026    0.000000   -0.000130   -0.000000
  -12    2    5    6    8   -0.000175    0.000000   -0.000128    0.000000   -0.000101   -0.000000
  -12    2    5    7    8   -0.000029   -0.000000   -0.000015   -0.000000   -0.000003   -0.000000
  -12    2    5    8    8    0.000009   -0.000000    0.000009    0.000000    0.000001    0.000000
  -12    2    6    1    1   -0.000016    0.000000    0.000019   -0.000000   -0.000010    0.000000
  -12    2    6    2    1   -0.000147   -0.000000   -0.000036   -0.000000   -0.000025   -0.000000
  -12    2    6    3    1   -0.000031   -0.000000   -0.000006   -0.000000   -0.000140    0.000000
  -12    2    6    4    1   -0.000031    0.000000    0.000041    0.000000    0.000223    0.000000
  -12    2    6    5    1   -0.000007    0.000000   -0.000040   -0.000000   -0.000205    0.000000
  -12    2    6    6    1   -0.000113    0.000000   -0.000021   -0.000000    0.000031   -0.000000
  -12    2    6    7    1    0.000019   -0.000000   -0.000024    0.000000   -0.000140    0.000000
  -12    2    6    8    1   -0.000050   -0.000000    0.000031   -0.000000    0.000132   -0.000000
  -12    2    6    1    2   -0.000146    0.000000   -0.000001    0.000000   -0.000021    0.000000
  -12    2    6    2    2    0.000008   -0.000000   -0.000005    0.000000    0.000008   -0.000000
  -12    2    6    3    2   -0.000169    0.000000   -0.000027    0.000000   -0.000072    0.000000
  -12    2    6    4    2    0.000261    0.000000    0.000067   -0.000000    0.000031    0.000000
  -12    2    6    5    2   -0.000121   -0.000000   -0.000025   -0.000000   -0.000036    0.000000
  -12    2    6    6    2    0.000036   -0.000000   -0.000059   -0.000000   -0.000187    0.000000
  -12    2    6    7    2   -0.000170    0.000000   -0.000033    0.000000   -0.000044    0.000000
  -12    2    6    8    2    0.000138    0.000000    0.000046   -0.000000   -0.000007    0.000000
  -12    2    6    1    3    0.000048    0.000000    0.000054    0.000000    0.000070    0.000000
  -12    2    6    2    3    0.000026    0.000000    0.000034    0.000000    0.000039    0.000000
  -12    2    6    3    3    0.000010   -0.000000    0.000017   -0.000000    0.000004   -0.000000
  -12    2    6    4    3   -0.000033    0.000000   -0.000018   -0.000000   -0.000057    0.000000
  -12    2    6    5    3    0.000016    0.000000    0.000052   -0.000000    0.000117   -0.000000
  -12    2    6    6    3    0.000002    0.000000    0.000040   -0.000000    0.000069   -0.000000
  -12    2    6    7    3    0.000019    0.000000   -0.000024   -0.000000   -0.000005    0.000000
  -12    2    6    8    3   -0.000041   -0.000000   -0.000015    0.000000   -0.000047   -0.000000
  -12    2    6    1    4   -0.000034   -0.000000    0.000004    0.000000   -0.000146   -0.000000
  -12    2    6    2    4   -0.000194   -0.000000   -0.000139   -0.000000   -0.000097    0.000000
  -12    2    6    3    4   -0.000037   -0.000000    0.000015   -0.000000   -0.000086   -0.000000
  -12    2    6    4    4    0.000001   -0.000000   -0.000024   -0.000000    0.000001   -0.000000
  -12    2    6    5    4   -0.000000   -0.000000   -0.000003   -0.000000   -0.000129    0.000000
  -12    2    6    6    4   -0.000103   -0.000000   -0.000118   -0.000000   -0.000051   -0.000000
  -12    2    6    7    4   -0.000034    0.000000    0.000004   -0.000000   -0.000060    0.000000
  -12    2    6    8    4    0.000007    0.000000   -0.000012   -0.000000   -0.000027   -0.000000
  -12    2    6    1    5    0.000018    0.000000   -0.000063   -0.000000   -0.000166    0.000000
  -12    2    6    2    5   -0.000096    0.000000   -0.000028    0.000000    0.000012   -0.000000
  -12    2    6    3    5   -0.000032    0.000000   -0.000016    0.000000   -0.000053   -0.000000
  -12    2    6    4    5   -0.000032    0.000000    0.000068   -0.000000    0.000220   -0.000000
  -12    2    6    5    5    0.000016   -0.000000   -0.000019    0.000000    0.000010   -0.000000
  -12    2    6    6    5   -0.000114    0.000000    0.000003   -0.000000    0.000010    0.000000
  -12    2    6    7    5   -0.000030    0.000000   -0.000004    0.000000   -0.000106    0.000000
  -12    2    6    8    5   -0.000026    0.000000    0.000048    0.000000    0.000173   -0.000000
  -12    2    6    1    6   -0.000083   -0.000000    0.000010    0.000000   -0.000016   -0.000000
  -12    2    6    2    6   -0.000026    0.000000   -0.000051    0.000000   -0.000212   -0.000000
  -12    2    6    3    6   -0.000056   -0.000000   -0.000002   -0.000000   -0.000012   -0.000000
  -12    2    6    4    6    0.000188   -0.000000    0.000016   -0.000000    0.000005    0.000000
  -12    2    6    5    6   -0.000098   -0.000000    0.000008   -0.000000   -0.000003    0.000000
  -12    2    6    6    6   -0.000008    0.000000    0.000005   -0.000000   -0.000008    0.000000
  -12    2    6    7    6   -0.000092    0.000000   -0.000019   -0.000000   -0.000006   -0.000000
  -12    2    6    8    6    0.000124    0.000000    0.000044    0.000000   -0.000009   -0.000000
  -12    2    6    1    7    0.000009   -0.000000    0.000047    0.000000    0.000055   -0.000000
  -12    2    6    2    7   -0.000001    0.000000    0.000012    0.000000    0.000007    0.000000
  -12    2    6    3    7   -0.000030   -0.000000   -0.000026   -0.000000   -0.000111    0.000000
  -12    2    6    4    7    0.000004   -0.000000   -0.000033   -0.000000   -0.000033   -0.000000
  -12    2    6    5    7   -0.000009   -0.000000    0.000049   -0.000000    0.000110   -0.000000
  -12    2    6    6    7    0.000002   -0.000000   -0.000014    0.000000    0.000029   -0.000000
  -12    2    6    7    7   -0.000010    0.000000   -0.000017    0.000000   -0.000004    0.000000
  -12    2    6    8    7   -0.000012    0.000000   -0.000033    0.000000   -0.000071    0.000000
  -12    2    6    1    8   -0.000016    0.000000    0.000005    0.000000   -0.000177    0.000000
  -12    2    6    2    8   -0.000201    0.000000   -0.000136    0.000000   -0.000125    0.000000
  -12    2    6    3    8   -0.000025    0.000000    0.000007    0.000000   -0.000043   -0.000000
  -12    2    6    4    8    0.000019   -0.000000    0.000004    0.000000    0.000062   -0.000000
  -12    2    6    5    8    0.000003   -0.000000   -0.000022   -0.000000   -0.000191   -0.000000
  -12    2    6    6    8   -0.000118   -0.000000   -0.000138    0.000000   -0.000077   -0.000000
  -12    2    6    7    8   -0.000021   -0.000000   -0.000018    0.000000   -0.000041   -0.000000
  -12    2    6    8    8   -0.000001    0.000000    0.000024    0.000000   -0.000001    0.000000
  -12    3    3    1    1   -0.000000    0.000000    0.000012    0.000000    0.000005    0.000000
  -12    3    3    2    1   -0.000187   -0.000000   -0.000194   -0.000000    0.000024   -0.000000
  -12    3    3    3    1   -0.000060   -0.000000    0.000001   -0.000000    0.000001   -0.000000
  -12    3    3    4    1   -0.000068    0.000000   -0.000004    0.000000    0.000072    0.000000
  -12    3    3    5    1   -0.000061   -0.000000   -0.000096    0.000000   -0.000120    0.000000
  -12    3    3    6    1   -0.000204   -0.000000   -0.000202   -0.000000    0.000081    0.000000
  -12    3    3    7    1   -0.000023    0.000000   -0.000054   -0.000000   -0.000056   -0.000000
  -12    3    3    8    1   -0.000055   -0.000000    0.000031   -0.000000    0.000054   -0.000000
  -12    3    3    1    2   -0.000168    0.000000   -0.000072    0.000000    0.000075    0.000000
  -12    3    3    2    2   -0.000000    0.000000    0.000003   -0.000000    0.000007   -0.000000
  -12    3    3    3    2   -0.000024   -0.000000   -0.000011   -0.000000   -0.000008    0.000000
  -12    3    3    4    2    0.000366   -0.000000    0.000147   -0.000000   -0.000019    0.000000
  -12    3    3    5    2   -0.000197   -0.000000   -0.000085   -0.000000    0.000099    0.000000
  -12    3    3    6    2   -0.000005   -0.000000   -0.000048   -0.000000   -0.000141    0.000000
  -12    3    3    7    2   -0.000074   -0.000000   -0.000014   -0.000000   -0.000023   -0.000000
  -12    3    3    8    2    0.000245   -0.000000    0.000109    0.000000   -0.000043   -0.000000
  -12    3    3    1    3   -0.000013   -0.000000    0.000002   -0.000000    0.000001    0.000000
  -12    3    3    2    3    0.000000   -0.000000    0.000012    0.000000    0.000008   -0.000000
  -12    3    3    3    3    0.000000   -0.000000   -0.000018    0.000000   -0.000008    0.000000
  -12    3    3    4    3    0.000011   -0.000000    0.000008    0.000000    0.000005    0.000000
  -12    3    3    5    3    0.000049   -0.000000    0.000049    0.000000    0.000032   -0.000000
  -12    3    3    6    3    0.000019    0.000000    0.000047    0.000000    0.000033    0.000000
  -12    3    3    7    3    0.000089   -0.000000   -0.000018   -0.000000   -0.000021   -0.000000
  -12    3    3    8    3    0.000012   -0.000000    0.000029    0.000000   -0.000002    0.000000
  -12    3    3    1    4   -0.000086    0.000000   -0.000007    0.000000   -0.000050    0.000000
  -12    3    3    2    4   -0.000343   -0.000000   -0.000186    0.000000   -0.000004   -0.000000
  -12    3    3    3    4   -0.000029    0.000000   -0.000000   -0.000000   -0.000000    0.000000
  -12    3    3    4    4   -0.000000    0.000000   -0.000006   -0.000000   -0.000002   -0.000000
  -12    3    3    5    4   -0.000055    0.000000    0.000017    0.000000   -0.000047   -0.000000
  -12    3    3    6    4   -0.000285   -0.000000   -0.000188   -0.000000    0.000011    0.000000
  -12    3    3    7    4   -0.000041    0.000000   -0.000012   -0.000000    0.000004    0.000000
  -12    3    3    8    4   -0.000020   -0.000000   -0.000033   -0.000000   -0.000015   -0.000000
  -12    3    3    1    5   -0.000041   -0.000000   -0.000083    0.000000   -0.000068    0.000000
  -12    3    3    2    5   -0.000081   -0.000000   -0.000115    0.000000    0.000051   -0.000000
  -12    3    3    3    5   -0.000011    0.000000    0.000026    0.000000    0.000023    0.000000
  -12    3    3    4    5   -0.000017   -0.000000    0.000056   -0.000000    0.000081    0.000000
  -12    3    3    5    5    0.000000   -0.000000   -0.000012   -0.000000   -0.000005   -0.000000
  -12    3    3    6    5   -0.000122    0.000000   -0.000140   -0.000000    0.000073    0.000000
  -12    3    3    7    5    0.000009    0.000000    0.000003    0.000000    0.000002    0.000000
  -12    3    3    8    5   -0.000044    0.000000    0.000048    0.000000    0.000074   -0.000000
  -12    3    3    1    6   -0.000086   -0.000000   -0.000008    0.000000    0.000073   -0.000000
  -12    3    3    2    6   -0.000022   -0.000000   -0.000040   -0.000000   -0.000067   -0.000000
  -12    3    3    3    6    0.000043    0.000000    0.000009   -0.000000    0.000007    0.000000
  -12    3    3    4    6    0.000248   -0.000000    0.000071    0.000000   -0.000017   -0.000000
  -12    3    3    5    6   -0.000100   -0.000000   -0.000003   -0.000000    0.000103   -0.000000
  -12    3    3    6    6    0.000000   -0.000000   -0.000003    0.000000   -0.000007    0.000000
  -12    3    3    7    6    0.000022   -0.000000   -0.000006   -0.000000   -0.000005    0.000000
[...]
   -9   -3    6    5    7   -0.000033    0.000000    0.000002   -0.000000    0.000015    0.000000
   -9   -3    6    6    7    0.000001   -0.000000   -0.000042   -0.000000    0.000022    0.000000
   -9   -3    6    7    7    0.000010   -0.000000    0.000022   -0.000000   -0.000004    0.000000
   -9   -3    6    8    7   -0.000017    0.000000   -0.000018   -0.000000   -0.000001    0.000000
   -9   -3    6    1    8   -0.000017   -0.000000    0.000027   -0.000000    0.000003    0.000000
   -9   -3    6    2    8   -0.000005   -0.000000    0.000004    0.000000   -0.000020   -0.000000
   -9   -3    6    3    8   -0.000033   -0.000000    0.000012    0.000000   -0.000016   -0.000000
   -9   -3    6    4    8    0.000006   -0.000000    0.000002    0.000000    0.000007    0.000000
   -9   -3    6    5    8   -0.000031   -0.000000    0.000044   -0.000000   -0.000005    0.000000
   -9   -3    6    6    8    0.000001   -0.000000    0.000001    0.000000   -0.000022    0.000000
   -9   -3    6    7    8   -0.000017   -0.000000    0.000006    0.000000   -0.000017   -0.000000
   -9   -3    6    8    8   -0.000008    0.000000   -0.000008    0.000000    0.000004   -0.000000
   -9   -3    7    1    1    0.000007   -0.000000   -0.000001   -0.000000    0.000002    0.000000
   -9   -3    7    2    1    0.000018    0.000000   -0.000076    0.000000    0.000002   -0.000000
   -9   -3    7    3    1   -0.000021   -0.000000    0.000013    0.000000   -0.000045   -0.000000
   -9   -3    7    4    1    0.000015   -0.000000   -0.000004    0.000000   -0.000033   -0.000000
   -9   -3    7    5    1   -0.000046   -0.000000   -0.000007   -0.000000    0.000060   -0.000000
   -9   -3    7    6    1   -0.000020   -0.000000   -0.000071    0.000000    0.000069   -0.000000
   -9   -3    7    7    1    0.000003   -0.000000    0.000025    0.000000   -0.000072   -0.000000
   -9   -3    7    8    1    0.000014    0.000000   -0.000001   -0.000000   -0.000021    0.000000
   -9   -3    7    1    2    0.000014   -0.000000   -0.000041    0.000000    0.000105   -0.000000
   -9   -3    7    2    2   -0.000002    0.000000    0.000013    0.000000   -0.000010   -0.000000
   -9   -3    7    3    2    0.000043    0.000000   -0.000032    0.000000   -0.000083   -0.000000
   -9   -3    7    4    2    0.000017   -0.000000    0.000030    0.000000   -0.000056    0.000000
   -9   -3    7    5    2    0.000047    0.000000   -0.000049    0.000000    0.000079   -0.000000
   -9   -3    7    6    2    0.000018    0.000000    0.000008   -0.000000    0.000060   -0.000000
   -9   -3    7    7    2    0.000030   -0.000000   -0.000020    0.000000   -0.000121    0.000000
   -9   -3    7    8    2    0.000022    0.000000   -0.000013    0.000000   -0.000021   -0.000000
   -9   -3    7    1    3   -0.000026    0.000000    0.000012    0.000000    0.000007    0.000000
   -9   -3    7    2    3    0.000035    0.000000   -0.000067   -0.000000   -0.000007    0.000000
   -9   -3    7    3    3    0.000011   -0.000000    0.000006   -0.000000   -0.000000    0.000000
   -9   -3    7    4    3    0.000014   -0.000000   -0.000025    0.000000    0.000001   -0.000000
   -9   -3    7    5    3   -0.000023   -0.000000    0.000016    0.000000    0.000039   -0.000000
   -9   -3    7    6    3    0.000031   -0.000000   -0.000089    0.000000    0.000035    0.000000
   -9   -3    7    7    3    0.000001   -0.000000    0.000009    0.000000   -0.000031   -0.000000
   -9   -3    7    8    3   -0.000032    0.000000    0.000008   -0.000000    0.000003    0.000000
   -9   -3    7    1    4   -0.000009   -0.000000    0.000015    0.000000   -0.000011   -0.000000
   -9   -3    7    2    4   -0.000011   -0.000000    0.000007    0.000000   -0.000024   -0.000000
   -9   -3    7    3    4   -0.000019   -0.000000    0.000016    0.000000   -0.000014   -0.000000
   -9   -3    7    4    4   -0.000002   -0.000000    0.000009   -0.000000   -0.000005    0.000000
   -9   -3    7    5    4   -0.000021   -0.000000    0.000027   -0.000000   -0.000005    0.000000
   -9   -3    7    6    4    0.000019    0.000000    0.000010   -0.000000   -0.000032    0.000000
   -9   -3    7    7    4   -0.000029    0.000000    0.000007   -0.000000    0.000016   -0.000000
   -9   -3    7    8    4   -0.000009    0.000000   -0.000004   -0.000000    0.000019    0.000000
   -9   -3    7    1    5   -0.000020    0.000000   -0.000013    0.000000    0.000027    0.000000
   -9   -3    7    2    5   -0.000013    0.000000   -0.000054   -0.000000    0.000006    0.000000
   -9   -3    7    3    5   -0.000004    0.000000    0.000015   -0.000000   -0.000038   -0.000000
   -9   -3    7    4    5    0.000010   -0.000000    0.000011   -0.000000   -0.000026   -0.000000
   -9   -3    7    5    5   -0.000007    0.000000    0.000001    0.000000   -0.000002   -0.000000
   -9   -3    7    6    5    0.000007    0.000000   -0.000072   -0.000000    0.000041    0.000000
   -9   -3    7    7    5    0.000012   -0.000000    0.000021   -0.000000   -0.000048   -0.000000
   -9   -3    7    8    5    0.000001    0.000000    0.000017    0.000000   -0.000011   -0.000000
   -9   -3    7    1    6    0.000022    0.000000   -0.000020   -0.000000    0.000077    0.000000
   -9   -3    7    2    6    0.000003   -0.000000    0.000016    0.000000    0.000065    0.000000
   -9   -3    7    3    6    0.000017    0.000000   -0.000017   -0.000000   -0.000045   -0.000000
   -9   -3    7    4    6    0.000012   -0.000000    0.000011   -0.000000   -0.000030    0.000000
   -9   -3    7    5    6   -0.000010   -0.000000   -0.000010   -0.000000    0.000091    0.000000
   -9   -3    7    6    6    0.000002   -0.000000   -0.000013   -0.000000    0.000010    0.000000
   -9   -3    7    7    6    0.000052    0.000000   -0.000051    0.000000   -0.000070   -0.000000
   -9   -3    7    8    6   -0.000009   -0.000000    0.000005   -0.000000   -0.000012    0.000000
   -9   -3    7    1    7   -0.000004   -0.000000    0.000012   -0.000000    0.000009    0.000000
   -9   -3    7    2    7    0.000014    0.000000   -0.000032    0.000000    0.000015   -0.000000
   -9   -3    7    3    7   -0.000030   -0.000000    0.000016    0.000000    0.000012    0.000000
   -9   -3    7    4    7   -0.000008   -0.000000   -0.000004    0.000000    0.000005   -0.000000
   -9   -3    7    5    7    0.000010   -0.000000    0.000010    0.000000    0.000023   -0.000000
   -9   -3    7    6    7    0.000044    0.000000   -0.000052   -0.000000    0.000020    0.000000
   -9   -3    7    7    7   -0.000011    0.000000   -0.000006    0.000000    0.000000   -0.000000
   -9   -3    7    8    7   -0.000011    0.000000   -0.000016   -0.000000    0.000006    0.000000
   -9   -3    7    1    8   -0.000016    0.000000    0.000029   -0.000000    0.000006    0.000000
   -9   -3    7    2    8    0.000012   -0.000000   -0.000018    0.000000   -0.000027   -0.000000
   -9   -3    7    3    8   -0.000016    0.000000    0.000011   -0.000000   -0.000005    0.000000
   -9   -3    7    4    8    0.000007   -0.000000   -0.000009   -0.000000    0.000005    0.000000
   -9   -3    7    5    8   -0.000021    0.000000    0.000024   -0.000000    0.000026    0.000000
   -9   -3    7    6    8    0.000026   -0.000000   -0.000033    0.000000   -0.000004    0.000000
   -9   -3    7    7    8    0.000004   -0.000000    0.000017   -0.000000   -0.000040    0.000000
   -9   -3    7    8    8    0.000002    0.000000   -0.000009    0.000000    0.000005   -0.000000
   -9   -3    8    1    1    0.000001    0.000000    0.000005    0.000000   -0.000006   -0.000000
   -9   -3    8    2    1   -0.000021   -0.000000   -0.000059    0.000000    0.000040   -0.000000
   -9   -3    8    3    1   -0.000043   -0.000000    0.000036   -0.000000   -0.000019   -0.000000
   -9   -3    8    4    1    0.000011   -0.000000    0.000001    0.000000   -0.000018   -0.000000
   -9   -3    8    5    1   -0.000069   -0.000000    0.000002   -0.000000    0.000086    0.000000
   -9   -3    8    6    1   -0.000010   -0.000000   -0.000063    0.000000    0.000035   -0.000000
   -9   -3    8    7    1    0.000009   -0.000000    0.000034    0.000000   -0.000058   -0.000000
   -9   -3    8    8    1   -0.000015   -0.000000    0.000024    0.000000    0.000017   -0.000000
   -9   -3    8    1    2    0.000035    0.000000   -0.000040   -0.000000    0.000062    0.000000
   -9   -3    8    2    2    0.000005   -0.000000    0.000006   -0.000000   -0.000000    0.000000
   -9   -3    8    3    2    0.000054    0.000000   -0.000043    0.000000   -0.000099    0.000000
   -9   -3    8    4    2   -0.000008    0.000000    0.000023   -0.000000   -0.000028    0.000000
   -9   -3    8    5    2    0.000030    0.000000   -0.000038    0.000000    0.000064   -0.000000
   -9   -3    8    6    2    0.000001   -0.000000    0.000027    0.000000    0.000094    0.000000
   -9   -3    8    7    2    0.000015   -0.000000   -0.000031   -0.000000   -0.000125    0.000000
   -9   -3    8    8    2    0.000002   -0.000000    0.000005    0.000000   -0.000011   -0.000000
   -9   -3    8    1    3   -0.000026   -0.000000    0.000021   -0.000000    0.000031    0.000000
   -9   -3    8    2    3    0.000033   -0.000000   -0.000073    0.000000   -0.000011    0.000000
   -9   -3    8    3    3    0.000008    0.000000    0.000019    0.000000   -0.000006   -0.000000
   -9   -3    8    4    3    0.000007   -0.000000   -0.000022   -0.000000   -0.000010    0.000000
   -9   -3    8    5    3   -0.000010   -0.000000    0.000022    0.000000    0.000039   -0.000000
   -9   -3    8    6    3    0.000039   -0.000000   -0.000108    0.000000    0.000012   -0.000000
   -9   -3    8    7    3   -0.000017   -0.000000    0.000021    0.000000   -0.000010    0.000000
   -9   -3    8    8    3   -0.000018    0.000000    0.000011    0.000000    0.000005   -0.000000
   -9   -3    8    1    4    0.000002   -0.000000    0.000016   -0.000000   -0.000022    0.000000
   -9   -3    8    2    4    0.000012    0.000000   -0.000001   -0.000000   -0.000027    0.000000
   -9   -3    8    3    4    0.000010    0.000000   -0.000002   -0.000000   -0.000041    0.000000
   -9   -3    8    4    4    0.000003   -0.000000    0.000002   -0.000000    0.000002    0.000000
   -9   -3    8    5    4    0.000015   -0.000000    0.000011    0.000000   -0.000039   -0.000000
   -9   -3    8    6    4    0.000007    0.000000   -0.000005   -0.000000    0.000001    0.000000
   -9   -3    8    7    4   -0.000014    0.000000    0.000001   -0.000000    0.000015    0.000000
   -9   -3    8    8    4    0.000005    0.000000   -0.000014   -0.000000   -0.000013    0.000000
   -9   -3    8    1    5   -0.000020   -0.000000   -0.000012   -0.000000    0.000038    0.000000
   -9   -3    8    2    5   -0.000003    0.000000   -0.000056   -0.000000    0.000015    0.000000
   -9   -3    8    3    5   -0.000010   -0.000000    0.000025   -0.000000   -0.000024    0.000000
   -9   -3    8    4    5    0.000011   -0.000000    0.000005   -0.000000   -0.000012    0.000000
   -9   -3    8    5    5   -0.000001   -0.000000   -0.000005   -0.000000    0.000006    0.000000
   -9   -3    8    6    5   -0.000021   -0.000000   -0.000067   -0.000000    0.000037    0.000000
   -9   -3    8    7    5    0.000031    0.000000    0.000029   -0.000000   -0.000051    0.000000
   -9   -3    8    8    5   -0.000007    0.000000    0.000024   -0.000000    0.000007    0.000000
   -9   -3    8    1    6    0.000015    0.000000   -0.000034   -0.000000    0.000067    0.000000
   -9   -3    8    2    6    0.000043    0.000000   -0.000018    0.000000    0.000014   -0.000000
   -9   -3    8    3    6    0.000009    0.000000   -0.000031   -0.000000   -0.000064   -0.000000
   -9   -3    8    4    6    0.000022   -0.000000    0.000012    0.000000   -0.000046    0.000000
   -9   -3    8    5    6    0.000036    0.000000   -0.000051    0.000000    0.000050   -0.000000
   -9   -3    8    6    6   -0.000005    0.000000   -0.000006    0.000000    0.000000   -0.000000
   -9   -3    8    7    6    0.000015   -0.000000   -0.000049   -0.000000   -0.000108    0.000000
   -9   -3    8    8    6    0.000009    0.000000   -0.000005   -0.000000   -0.000030    0.000000
   -9   -3    8    1    7    0.000012    0.000000    0.000021   -0.000000    0.000013   -0.000000
   -9   -3    8    2    7    0.000023    0.000000   -0.000043   -0.000000    0.000007   -0.000000
   -9   -3    8    3    7    0.000027    0.000000   -0.000002    0.000000   -0.000036   -0.000000
   -9   -3    8    4    7   -0.000014    0.000000   -0.000015   -0.000000    0.000008    0.000000
   -9   -3    8    5    7    0.000043    0.000000    0.000014    0.000000   -0.000010   -0.000000
   -9   -3    8    6    7    0.000072    0.000000   -0.000084   -0.000000   -0.000006    0.000000
   -9   -3    8    7    7   -0.000008   -0.000000   -0.000019   -0.000000    0.000006    0.000000
   -9   -3    8    8    7    0.000011    0.000000   -0.000029    0.000000   -0.000027   -0.000000
   -9   -3    8    1    8   -0.000008    0.000000    0.000010   -0.000000    0.000009    0.000000
   -9   -3    8    2    8    0.000026   -0.000000   -0.000016    0.000000   -0.000033    0.000000
   -9   -3    8    3    8   -0.000012    0.000000    0.000009    0.000000    0.000002   -0.000000
   -9   -3    8    4    8   -0.000001   -0.000000   -0.000000    0.000000    0.000005   -0.000000
   -9   -3    8    5    8   -0.000012    0.000000    0.000020    0.000000    0.000011   -0.000000
   -9   -3    8    6    8   -0.000001    0.000000   -0.000018    0.000000    0.000001   -0.000000
   -9   -3    8    7    8    0.000008   -0.000000    0.000019    0.000000   -0.000025   -0.000000
   -9   -3    8    8    8   -0.000003    0.000000   -0.000002    0.000000   -0.000002   -0.000000
   -9   -3    9    1    1    0.000000    0.000000   -0.000001    0.000000    0.000001    0.000000
   -9   -3    9    2    1    0.000003    0.000000   -0.000048    0.000000   -0.000007   -0.000000
   -9   -3    9    3    1    0.000011    0.000000    0.000030    0.000000   -0.000032   -0.000000
   -9   -3    9    4    1    0.000023   -0.000000   -0.000020    0.000000    0.000009   -0.000000
   -9   -3    9    5    1   -0.000038   -0.000000   -0.000002    0.000000    0.000069   -0.000000
   -9   -3    9    6    1    0.000024   -0.000000   -0.000082    0.000000   -0.000007    0.000000
   -9   -3    9    7    1    0.000021    0.000000    0.000025    0.000000   -0.000011    0.000000
   -9   -3    9    8    1    0.000013   -0.000000    0.000021    0.000000    0.000009    0.000000
   -9   -3    9    1    2    0.000018   -0.000000   -0.000016   -0.000000    0.000058    0.000000
   -9   -3    9    2    2    0.000000    0.000000   -0.000003    0.000000    0.000001   -0.000000
   -9   -3    9    3    2   -0.000017   -0.000000   -0.000039    0.000000   -0.000067   -0.000000
   -9   -3    9    4    2   -0.000002   -0.000000   -0.000010   -0.000000    0.000006    0.000000
   -9   -3    9    5    2   -0.000006   -0.000000   -0.000028    0.000000    0.000062   -0.000000
   -9   -3    9    6    2   -0.000019   -0.000000    0.000011    0.000000    0.000118   -0.000000
   -9   -3    9    7    2   -0.000012   -0.000000   -0.000042    0.000000   -0.000108    0.000000
   -9   -3    9    8    2    0.000025    0.000000   -0.000024    0.000000   -0.000006    0.000000
   -9   -3    9    1    3    0.000014   -0.000000    0.000007   -0.000000    0.000037    0.000000
   -9   -3    9    2    3    0.000024   -0.000000   -0.000095    0.000000   -0.000021   -0.000000
   -9   -3    9    3    3   -0.000015    0.000000   -0.000020    0.000000   -0.000002   -0.000000
   -9   -3    9    4    3   -0.000011    0.000000   -0.000032   -0.000000   -0.000008    0.000000
   -9   -3    9    5    3   -0.000020   -0.000000   -0.000019    0.000000    0.000021   -0.000000
   -9   -3    9    6    3    0.000039   -0.000000   -0.000093   -0.000000   -0.000017    0.000000
   -9   -3    9    7    3   -0.000014   -0.000000    0.000013   -0.000000   -0.000024   -0.000000
   -9   -3    9    8    3   -0.000021   -0.000000    0.000007    0.000000    0.000015   -0.000000
   -9   -3    9    1    4    0.000003    0.000000   -0.000020   -0.000000    0.000008    0.000000
   -9   -3    9    2    4   -0.000009   -0.000000    0.000006   -0.000000    0.000014    0.000000
   -9   -3    9    3    4   -0.000016   -0.000000   -0.000011   -0.000000   -0.000008    0.000000
   -9   -3    9    4    4    0.000009   -0.000000    0.000019   -0.000000   -0.000001    0.000000
   -9   -3    9    5    4   -0.000010   -0.000000    0.000002    0.000000   -0.000016   -0.000000
   -9   -3    9    6    4    0.000023    0.000000    0.000012   -0.000000   -0.000033    0.000000
   -9   -3    9    7    4   -0.000027    0.000000    0.000013   -0.000000    0.000016    0.000000
   -9   -3    9    8    4   -0.000012   -0.000000    0.000006    0.000000   -0.000005   -0.000000
   -9   -3    9    1    5   -0.000021   -0.000000   -0.000012   -0.000000    0.000061   -0.000000
   -9   -3    9    2    5   -0.000008   -0.000000   -0.000057   -0.000000   -0.000014    0.000000
   -9   -3    9    3    5   -0.000015   -0.000000    0.000014   -0.000000   -0.000041   -0.000000
   -9   -3    9    4    5    0.000008   -0.000000   -0.000007    0.000000   -0.000011   -0.000000
   -9   -3    9    5    5   -0.000000   -0.000000    0.000001   -0.000000   -0.000001   -0.000000
   -9   -3    9    6    5    0.000000    0.000000   -0.000071    0.000000   -0.000009   -0.000000
   -9   -3    9    7    5   -0.000007    0.000000    0.000029    0.000000   -0.000037   -0.000000
   -9   -3    9    8    5    0.000001   -0.000000    0.000003   -0.000000    0.000001   -0.000000
   -9   -3    9    1    6    0.000015    0.000000   -0.000023   -0.000000    0.000056    0.000000
   -9   -3    9    2    6   -0.000011   -0.000000    0.000018   -0.000000    0.000074   -0.000000
   -9   -3    9    3    6    0.000003   -0.000000   -0.000035   -0.000000   -0.000061    0.000000
   -9   -3    9    4    6   -0.000000    0.000000    0.000011   -0.000000   -0.000016    0.000000
   -9   -3    9    5    6    0.000007   -0.000000   -0.000029    0.000000    0.000050   -0.000000
   -9   -3    9    6    6   -0.000000   -0.000000    0.000003   -0.000000   -0.000001    0.000000
   -9   -3    9    7    6   -0.000006   -0.000000   -0.000048   -0.000000   -0.000099    0.000000
   -9   -3    9    8    6   -0.000008   -0.000000    0.000025    0.000000    0.000005   -0.000000
   -9   -3    9    1    7    0.000023    0.000000    0.000014   -0.000000    0.000040    0.000000
   -9   -3    9    2    7    0.000030   -0.000000   -0.000072   -0.000000    0.000006   -0.000000
   -9   -3    9    3    7   -0.000021   -0.000000    0.000010   -0.000000   -0.000019   -0.000000
   -9   -3    9    4    7   -0.000027   -0.000000   -0.000016   -0.000000   -0.000001    0.000000
   -9   -3    9    5    7   -0.000005   -0.000000    0.000005    0.000000    0.000027   -0.000000
   -9   -3    9    6    7    0.000033   -0.000000   -0.000072   -0.000000    0.000008    0.000000
   -9   -3    9    7    7    0.000015   -0.000000    0.000020   -0.000000    0.000002    0.000000
   -9   -3    9    8    7   -0.000017    0.000000   -0.000006    0.000000   -0.000011   -0.000000
   -9   -3    9    1    8   -0.000007    0.000000    0.000012    0.000000    0.000012   -0.000000
   -9   -3    9    2    8    0.000001   -0.000000   -0.000011    0.000000   -0.000011   -0.000000
   -9   -3    9    3    8   -0.000025   -0.000000    0.000014    0.000000   -0.000008   -0.000000
   -9   -3    9    4    8   -0.000011    0.000000    0.000005    0.000000    0.000009   -0.000000
   -9   -3    9    5    8   -0.000024    0.000000    0.000008    0.000000   -0.000003   -0.000000
   -9   -3    9    6    8    0.000000   -0.000000    0.000033    0.000000   -0.000010   -0.000000
   -9   -3    9    7    8   -0.000010   -0.000000    0.000016    0.000000   -0.000021   -0.000000
   -9   -3    9    8    8   -0.000009    0.000000   -0.000019    0.000000    0.000001   -0.000000
